
     Program PWSCF v.6.1 (svn rev. 13369) starts on  6Sep2017 at 12:42:49 

     This program is part of the open-source Quantum ESPRESSO suite
     for quantum simulation of materials; please cite
         "P. Giannozzi et al., J. Phys.:Condens. Matter 21 395502 (2009);
          URL http://www.quantum-espresso.org", 
     in publications or presentations arising from this work. More details at
     http://www.quantum-espresso.org/quote

     Parallel version (MPI), running on     2 processors
     R & G space division:  proc/nbgrp/npool/nimage =       2
     Reading input from fe_bcc_fm.band.in

     Current dimensions of program PWSCF are:
     Max number of different atomic species (ntypx) = 10
     Max number of k-points (npk) =  40000
     Max angular momentum in pseudopotentials (lmaxx) =  3

     Atomic positions and unit cell read from directory:
     ./fe_bcc.save/

               file Fe.pz-nd-rrkjus.UPF: wavefunction(s)  4S renormalized

     Subspace diagonalization in iterative solution of the eigenvalue problem:
     a serial algorithm will be used


     Parallelization info
     --------------------
     sticks:   dense  smooth     PW     G-vecs:    dense   smooth      PW
     Min         299     100     45                 4594      872     277
     Max         300     101     46                 4595      873     278
     Sum         599     201     91                 9189     1745     555



     bravais-lattice index     =            3
     lattice parameter (alat)  =       5.4200  a.u.
     unit-cell volume          =      79.6100 (a.u.)^3
     number of atoms/cell      =            1
     number of atomic types    =            1
     number of electrons       =         8.00
     number of Kohn-Sham states=            8
     kinetic-energy cutoff     =      30.0000  Ry
     charge density cutoff     =     360.0000  Ry
     Exchange-correlation      =  SLA  PZ   NOGX NOGC ( 1  1  0  0 0 0)

     celldm(1)=   5.420000  celldm(2)=   0.000000  celldm(3)=   0.000000
     celldm(4)=   0.000000  celldm(5)=   0.000000  celldm(6)=   0.000000

     crystal axes: (cart. coord. in units of alat)
               a(1) = (   0.500000   0.500000   0.500000 )  
               a(2) = (  -0.500000   0.500000   0.500000 )  
               a(3) = (  -0.500000  -0.500000   0.500000 )  

     reciprocal axes: (cart. coord. in units 2 pi/alat)
               b(1) = (  1.000000  0.000000  1.000000 )  
               b(2) = ( -1.000000  1.000000  0.000000 )  
               b(3) = (  0.000000 -1.000000  1.000000 )  


     PseudoPot. # 1 for Fe read from file:
     ./Fe.pz-nd-rrkjus.UPF
     MD5 check sum: 2e083728ad07023434bc1cc596eb954d
     Pseudo is Ultrasoft + core correction, Zval =  8.0
     Generated by new atomic code, or converted to UPF format
     Using radial grid of  957 points,  6 beta functions with: 
                l(1) =   0
                l(2) =   0
                l(3) =   1
                l(4) =   1
                l(5) =   2
                l(6) =   2
     Q(r) pseudized with 0 coefficients 


     atomic species   valence    mass     pseudopotential
        Fe             8.00    55.84500     Fe( 1.00)

     Starting magnetic structure 
     atomic species   magnetization
        Fe           0.600

     48 Sym. Ops., with inversion, found


                                    s                        frac. trans.

      isym =  1     identity                                     

 cryst.   s( 1) = (     1          0          0      )
                  (     0          1          0      )
                  (     0          0          1      )

 cart.    s( 1) = (  1.0000000  0.0000000  0.0000000 )
                  (  0.0000000  1.0000000  0.0000000 )
                  (  0.0000000  0.0000000  1.0000000 )


      isym =  2     180 deg rotation - cart. axis [0,0,1]        

 cryst.   s( 2) = (     0          0          1      )
                  (     1         -1          1      )
                  (     1          0          0      )

 cart.    s( 2) = ( -1.0000000  0.0000000  0.0000000 )
                  (  0.0000000 -1.0000000  0.0000000 )
                  (  0.0000000  0.0000000  1.0000000 )


      isym =  3     180 deg rotation - cart. axis [0,1,0]        

 cryst.   s( 3) = (    -1          1         -1      )
                  (     0          0         -1      )
                  (     0         -1          0      )

 cart.    s( 3) = ( -1.0000000  0.0000000  0.0000000 )
                  (  0.0000000  1.0000000  0.0000000 )
                  (  0.0000000  0.0000000 -1.0000000 )


      isym =  4     180 deg rotation - cart. axis [1,0,0]        

 cryst.   s( 4) = (     0         -1          0      )
                  (    -1          0          0      )
                  (    -1          1         -1      )

 cart.    s( 4) = (  1.0000000  0.0000000  0.0000000 )
                  (  0.0000000 -1.0000000  0.0000000 )
                  (  0.0000000  0.0000000 -1.0000000 )


      isym =  5     180 deg rotation - cart. axis [1,1,0]        

 cryst.   s( 5) = (     0          0         -1      )
                  (     0         -1          0      )
                  (    -1          0          0      )

 cart.    s( 5) = (  0.0000000  1.0000000  0.0000000 )
                  (  1.0000000  0.0000000  0.0000000 )
                  (  0.0000000  0.0000000 -1.0000000 )


      isym =  6     180 deg rotation - cart. axis [1,-1,0]       

 cryst.   s( 6) = (    -1          0          0      )
                  (    -1          1         -1      )
                  (     0          0         -1      )

 cart.    s( 6) = (  0.0000000 -1.0000000  0.0000000 )
                  ( -1.0000000  0.0000000  0.0000000 )
                  (  0.0000000  0.0000000 -1.0000000 )


      isym =  7      90 deg rotation - cart. axis [0,0,-1]       

 cryst.   s( 7) = (     1         -1          1      )
                  (     1          0          0      )
                  (     0          1          0      )

 cart.    s( 7) = (  0.0000000  1.0000000  0.0000000 )
                  ( -1.0000000  0.0000000  0.0000000 )
                  (  0.0000000  0.0000000  1.0000000 )


      isym =  8      90 deg rotation - cart. axis [0,0,1]        

 cryst.   s( 8) = (     0          1          0      )
                  (     0          0          1      )
                  (     1         -1          1      )

 cart.    s( 8) = (  0.0000000 -1.0000000  0.0000000 )
                  (  1.0000000  0.0000000  0.0000000 )
                  (  0.0000000  0.0000000  1.0000000 )


      isym =  9     180 deg rotation - cart. axis [1,0,1]        

 cryst.   s( 9) = (     1         -1          1      )
                  (     0         -1          0      )
                  (     0          0         -1      )

 cart.    s( 9) = (  0.0000000  0.0000000  1.0000000 )
                  (  0.0000000 -1.0000000  0.0000000 )
                  (  1.0000000  0.0000000  0.0000000 )


      isym = 10     180 deg rotation - cart. axis [-1,0,1]       

 cryst.   s(10) = (    -1          0          0      )
                  (     0          0          1      )
                  (     0          1          0      )

 cart.    s(10) = (  0.0000000  0.0000000 -1.0000000 )
                  (  0.0000000 -1.0000000  0.0000000 )
                  ( -1.0000000  0.0000000  0.0000000 )


      isym = 11      90 deg rotation - cart. axis [0,1,0]        

 cryst.   s(11) = (     0          0         -1      )
                  (     1          0          0      )
                  (     1         -1          1      )

 cart.    s(11) = (  0.0000000  0.0000000  1.0000000 )
                  (  0.0000000  1.0000000  0.0000000 )
                  ( -1.0000000  0.0000000  0.0000000 )


      isym = 12      90 deg rotation - cart. axis [0,-1,0]       

 cryst.   s(12) = (     0          1          0      )
                  (    -1          1         -1      )
                  (    -1          0          0      )

 cart.    s(12) = (  0.0000000  0.0000000 -1.0000000 )
                  (  0.0000000  1.0000000  0.0000000 )
                  (  1.0000000  0.0000000  0.0000000 )


      isym = 13     180 deg rotation - cart. axis [0,1,1]        

 cryst.   s(13) = (     0          1          0      )
                  (     1          0          0      )
                  (     0          0         -1      )

 cart.    s(13) = ( -1.0000000  0.0000000  0.0000000 )
                  (  0.0000000  0.0000000  1.0000000 )
                  (  0.0000000  1.0000000  0.0000000 )


      isym = 14     180 deg rotation - cart. axis [0,1,-1]       

 cryst.   s(14) = (    -1          0          0      )
                  (     0         -1          0      )
                  (     1         -1          1      )

 cart.    s(14) = ( -1.0000000  0.0000000  0.0000000 )
                  (  0.0000000  0.0000000 -1.0000000 )
                  (  0.0000000 -1.0000000  0.0000000 )


      isym = 15      90 deg rotation - cart. axis [-1,0,0]       

 cryst.   s(15) = (     0          0         -1      )
                  (    -1          1         -1      )
                  (     0          1          0      )

 cart.    s(15) = (  1.0000000  0.0000000  0.0000000 )
                  (  0.0000000  0.0000000  1.0000000 )
                  (  0.0000000 -1.0000000  0.0000000 )


      isym = 16      90 deg rotation - cart. axis [1,0,0]        

 cryst.   s(16) = (     1         -1          1      )
                  (     0          0          1      )
                  (    -1          0          0      )

 cart.    s(16) = (  1.0000000  0.0000000  0.0000000 )
                  (  0.0000000  0.0000000 -1.0000000 )
                  (  0.0000000  1.0000000  0.0000000 )


      isym = 17     120 deg rotation - cart. axis [-1,-1,-1]     

 cryst.   s(17) = (     1          0          0      )
                  (     0          0         -1      )
                  (    -1          1         -1      )

 cart.    s(17) = (  0.0000000  1.0000000  0.0000000 )
                  (  0.0000000  0.0000000  1.0000000 )
                  (  1.0000000  0.0000000  0.0000000 )


      isym = 18     120 deg rotation - cart. axis [-1,1,1]       

 cryst.   s(18) = (    -1          1         -1      )
                  (     0          1          0      )
                  (     1          0          0      )

 cart.    s(18) = (  0.0000000 -1.0000000  0.0000000 )
                  (  0.0000000  0.0000000  1.0000000 )
                  ( -1.0000000  0.0000000  0.0000000 )


      isym = 19     120 deg rotation - cart. axis [1,1,-1]       

 cryst.   s(19) = (     0         -1          0      )
                  (     1         -1          1      )
                  (     0          0          1      )

 cart.    s(19) = (  0.0000000  1.0000000  0.0000000 )
                  (  0.0000000  0.0000000 -1.0000000 )
                  ( -1.0000000  0.0000000  0.0000000 )


      isym = 20     120 deg rotation - cart. axis [1,-1,1]       

 cryst.   s(20) = (     0          0          1      )
                  (    -1          0          0      )
                  (     0         -1          0      )

 cart.    s(20) = (  0.0000000 -1.0000000  0.0000000 )
                  (  0.0000000  0.0000000 -1.0000000 )
                  (  1.0000000  0.0000000  0.0000000 )


      isym = 21     120 deg rotation - cart. axis [1,1,1]        

 cryst.   s(21) = (     1          0          0      )
                  (     1         -1          1      )
                  (     0         -1          0      )

 cart.    s(21) = (  0.0000000  0.0000000  1.0000000 )
                  (  1.0000000  0.0000000  0.0000000 )
                  (  0.0000000  1.0000000  0.0000000 )


      isym = 22     120 deg rotation - cart. axis [-1,1,-1]      

 cryst.   s(22) = (     0         -1          0      )
                  (     0          0         -1      )
                  (     1          0          0      )

 cart.    s(22) = (  0.0000000  0.0000000  1.0000000 )
                  ( -1.0000000  0.0000000  0.0000000 )
                  (  0.0000000 -1.0000000  0.0000000 )


      isym = 23     120 deg rotation - cart. axis [1,-1,-1]      

 cryst.   s(23) = (     0          0          1      )
                  (     0          1          0      )
                  (    -1          1         -1      )

 cart.    s(23) = (  0.0000000  0.0000000 -1.0000000 )
                  ( -1.0000000  0.0000000  0.0000000 )
                  (  0.0000000  1.0000000  0.0000000 )


      isym = 24     120 deg rotation - cart. axis [-1,-1,1]      

 cryst.   s(24) = (    -1          1         -1      )
                  (    -1          0          0      )
                  (     0          0          1      )

 cart.    s(24) = (  0.0000000  0.0000000 -1.0000000 )
                  (  1.0000000  0.0000000  0.0000000 )
                  (  0.0000000 -1.0000000  0.0000000 )


      isym = 25     inversion                                    

 cryst.   s(25) = (    -1          0          0      )
                  (     0         -1          0      )
                  (     0          0         -1      )

 cart.    s(25) = ( -1.0000000  0.0000000  0.0000000 )
                  (  0.0000000 -1.0000000  0.0000000 )
                  (  0.0000000  0.0000000 -1.0000000 )


      isym = 26     inv. 180 deg rotation - cart. axis [0,0,1]   

 cryst.   s(26) = (     0          0         -1      )
                  (    -1          1         -1      )
                  (    -1          0          0      )

 cart.    s(26) = (  1.0000000  0.0000000  0.0000000 )
                  (  0.0000000  1.0000000  0.0000000 )
                  (  0.0000000  0.0000000 -1.0000000 )


      isym = 27     inv. 180 deg rotation - cart. axis [0,1,0]   

 cryst.   s(27) = (     1         -1          1      )
                  (     0          0          1      )
                  (     0          1          0      )

 cart.    s(27) = (  1.0000000  0.0000000  0.0000000 )
                  (  0.0000000 -1.0000000  0.0000000 )
                  (  0.0000000  0.0000000  1.0000000 )


      isym = 28     inv. 180 deg rotation - cart. axis [1,0,0]   

 cryst.   s(28) = (     0          1          0      )
                  (     1          0          0      )
                  (     1         -1          1      )

 cart.    s(28) = ( -1.0000000  0.0000000  0.0000000 )
                  (  0.0000000  1.0000000  0.0000000 )
                  (  0.0000000  0.0000000  1.0000000 )


      isym = 29     inv. 180 deg rotation - cart. axis [1,1,0]   

 cryst.   s(29) = (     0          0          1      )
                  (     0          1          0      )
                  (     1          0          0      )

 cart.    s(29) = (  0.0000000 -1.0000000  0.0000000 )
                  ( -1.0000000  0.0000000  0.0000000 )
                  (  0.0000000  0.0000000  1.0000000 )


      isym = 30     inv. 180 deg rotation - cart. axis [1,-1,0]  

 cryst.   s(30) = (     1          0          0      )
                  (     1         -1          1      )
                  (     0          0          1      )

 cart.    s(30) = (  0.0000000  1.0000000  0.0000000 )
                  (  1.0000000  0.0000000  0.0000000 )
                  (  0.0000000  0.0000000  1.0000000 )


      isym = 31     inv.  90 deg rotation - cart. axis [0,0,-1]  

 cryst.   s(31) = (    -1          1         -1      )
                  (    -1          0          0      )
                  (     0         -1          0      )

 cart.    s(31) = (  0.0000000 -1.0000000  0.0000000 )
                  (  1.0000000  0.0000000  0.0000000 )
                  (  0.0000000  0.0000000 -1.0000000 )


      isym = 32     inv.  90 deg rotation - cart. axis [0,0,1]   

 cryst.   s(32) = (     0         -1          0      )
                  (     0          0         -1      )
                  (    -1          1         -1      )

 cart.    s(32) = (  0.0000000  1.0000000  0.0000000 )
                  ( -1.0000000  0.0000000  0.0000000 )
                  (  0.0000000  0.0000000 -1.0000000 )


      isym = 33     inv. 180 deg rotation - cart. axis [1,0,1]   

 cryst.   s(33) = (    -1          1         -1      )
                  (     0          1          0      )
                  (     0          0          1      )

 cart.    s(33) = (  0.0000000  0.0000000 -1.0000000 )
                  (  0.0000000  1.0000000  0.0000000 )
                  ( -1.0000000  0.0000000  0.0000000 )


      isym = 34     inv. 180 deg rotation - cart. axis [-1,0,1]  

 cryst.   s(34) = (     1          0          0      )
                  (     0          0         -1      )
                  (     0         -1          0      )

 cart.    s(34) = (  0.0000000  0.0000000  1.0000000 )
                  (  0.0000000  1.0000000  0.0000000 )
                  (  1.0000000  0.0000000  0.0000000 )


      isym = 35     inv.  90 deg rotation - cart. axis [0,1,0]   

 cryst.   s(35) = (     0          0          1      )
                  (    -1          0          0      )
                  (    -1          1         -1      )

 cart.    s(35) = (  0.0000000  0.0000000 -1.0000000 )
                  (  0.0000000 -1.0000000  0.0000000 )
                  (  1.0000000  0.0000000  0.0000000 )


      isym = 36     inv.  90 deg rotation - cart. axis [0,-1,0]  

 cryst.   s(36) = (     0         -1          0      )
                  (     1         -1          1      )
                  (     1          0          0      )

 cart.    s(36) = (  0.0000000  0.0000000  1.0000000 )
                  (  0.0000000 -1.0000000  0.0000000 )
                  ( -1.0000000  0.0000000  0.0000000 )


      isym = 37     inv. 180 deg rotation - cart. axis [0,1,1]   

 cryst.   s(37) = (     0         -1          0      )
                  (    -1          0          0      )
                  (     0          0          1      )

 cart.    s(37) = (  1.0000000  0.0000000  0.0000000 )
                  (  0.0000000  0.0000000 -1.0000000 )
                  (  0.0000000 -1.0000000  0.0000000 )


      isym = 38     inv. 180 deg rotation - cart. axis [0,1,-1]  

 cryst.   s(38) = (     1          0          0      )
                  (     0          1          0      )
                  (    -1          1         -1      )

 cart.    s(38) = (  1.0000000  0.0000000  0.0000000 )
                  (  0.0000000  0.0000000  1.0000000 )
                  (  0.0000000  1.0000000  0.0000000 )


      isym = 39     inv.  90 deg rotation - cart. axis [-1,0,0]  

 cryst.   s(39) = (     0          0          1      )
                  (     1         -1          1      )
                  (     0         -1          0      )

 cart.    s(39) = ( -1.0000000  0.0000000  0.0000000 )
                  (  0.0000000  0.0000000 -1.0000000 )
                  (  0.0000000  1.0000000  0.0000000 )


      isym = 40     inv.  90 deg rotation - cart. axis [1,0,0]   

 cryst.   s(40) = (    -1          1         -1      )
                  (     0          0         -1      )
                  (     1          0          0      )

 cart.    s(40) = ( -1.0000000  0.0000000  0.0000000 )
                  (  0.0000000  0.0000000  1.0000000 )
                  (  0.0000000 -1.0000000  0.0000000 )


      isym = 41     inv. 120 deg rotation - cart. axis [-1,-1,-1]

 cryst.   s(41) = (    -1          0          0      )
                  (     0          0          1      )
                  (     1         -1          1      )

 cart.    s(41) = (  0.0000000 -1.0000000  0.0000000 )
                  (  0.0000000  0.0000000 -1.0000000 )
                  ( -1.0000000  0.0000000  0.0000000 )


      isym = 42     inv. 120 deg rotation - cart. axis [-1,1,1]  

 cryst.   s(42) = (     1         -1          1      )
                  (     0         -1          0      )
                  (    -1          0          0      )

 cart.    s(42) = (  0.0000000  1.0000000  0.0000000 )
                  (  0.0000000  0.0000000 -1.0000000 )
                  (  1.0000000  0.0000000  0.0000000 )


      isym = 43     inv. 120 deg rotation - cart. axis [1,1,-1]  

 cryst.   s(43) = (     0          1          0      )
                  (    -1          1         -1      )
                  (     0          0         -1      )

 cart.    s(43) = (  0.0000000 -1.0000000  0.0000000 )
                  (  0.0000000  0.0000000  1.0000000 )
                  (  1.0000000  0.0000000  0.0000000 )


      isym = 44     inv. 120 deg rotation - cart. axis [1,-1,1]  

 cryst.   s(44) = (     0          0         -1      )
                  (     1          0          0      )
                  (     0          1          0      )

 cart.    s(44) = (  0.0000000  1.0000000  0.0000000 )
                  (  0.0000000  0.0000000  1.0000000 )
                  ( -1.0000000  0.0000000  0.0000000 )


      isym = 45     inv. 120 deg rotation - cart. axis [1,1,1]   

 cryst.   s(45) = (    -1          0          0      )
                  (    -1          1         -1      )
                  (     0          1          0      )

 cart.    s(45) = (  0.0000000  0.0000000 -1.0000000 )
                  ( -1.0000000  0.0000000  0.0000000 )
                  (  0.0000000 -1.0000000  0.0000000 )


      isym = 46     inv. 120 deg rotation - cart. axis [-1,1,-1] 

 cryst.   s(46) = (     0          1          0      )
                  (     0          0          1      )
                  (    -1          0          0      )

 cart.    s(46) = (  0.0000000  0.0000000 -1.0000000 )
                  (  1.0000000  0.0000000  0.0000000 )
                  (  0.0000000  1.0000000  0.0000000 )


      isym = 47     inv. 120 deg rotation - cart. axis [1,-1,-1] 

 cryst.   s(47) = (     0          0         -1      )
                  (     0         -1          0      )
                  (     1         -1          1      )

 cart.    s(47) = (  0.0000000  0.0000000  1.0000000 )
                  (  1.0000000  0.0000000  0.0000000 )
                  (  0.0000000 -1.0000000  0.0000000 )


      isym = 48     inv. 120 deg rotation - cart. axis [-1,-1,1] 

 cryst.   s(48) = (     1         -1          1      )
                  (     1          0          0      )
                  (     0          0         -1      )

 cart.    s(48) = (  0.0000000  0.0000000  1.0000000 )
                  ( -1.0000000  0.0000000  0.0000000 )
                  (  0.0000000  1.0000000  0.0000000 )


     point group O_h (m-3m) 
     there are 10 classes
     the character table:

       E     8C3   3C2   6C4   6C2'  i     8S6   3s_h  6S4   6s_d 
A_1g   1.00  1.00  1.00  1.00  1.00  1.00  1.00  1.00  1.00  1.00
A_2g   1.00  1.00  1.00 -1.00 -1.00  1.00  1.00  1.00 -1.00 -1.00
E_g    2.00 -1.00  2.00  0.00  0.00  2.00 -1.00  2.00  0.00  0.00
T_1g   3.00  0.00 -1.00  1.00 -1.00  3.00  0.00 -1.00  1.00 -1.00
T_2g   3.00  0.00 -1.00 -1.00  1.00  3.00  0.00 -1.00 -1.00  1.00
A_1u   1.00  1.00  1.00  1.00  1.00 -1.00 -1.00 -1.00 -1.00 -1.00
A_2u   1.00  1.00  1.00 -1.00 -1.00 -1.00 -1.00 -1.00  1.00  1.00
E_u    2.00 -1.00  2.00  0.00  0.00 -2.00  1.00 -2.00  0.00  0.00
T_1u   3.00  0.00 -1.00  1.00 -1.00 -3.00  0.00  1.00 -1.00  1.00
T_2u   3.00  0.00 -1.00 -1.00  1.00 -3.00  0.00  1.00  1.00 -1.00

     the symmetry operations in each class and the name of the first element:

     E        1
          identity                                               
     8C3     17   19   20   18   24   21   22   23
          120 deg rotation - cart. axis [-1,-1,-1]               
     3C2      2    4    3
          180 deg rotation - cart. axis [0,0,1]                  
     6C4      7    8   15   16   12   11
           90 deg rotation - cart. axis [0,0,-1]                 
     6C2'     5    6   14   13   10    9
          180 deg rotation - cart. axis [1,1,0]                  
     i       25
          inversion                                              
     8S6     41   43   44   42   48   45   46   47
          inv. 120 deg rotation - cart. axis [-1,-1,-1]          
     3s_h    26   28   27
          inv. 180 deg rotation - cart. axis [0,0,1]             
     6S4     31   32   39   40   36   35
          inv.  90 deg rotation - cart. axis [0,0,-1]            
     6s_d    29   30   38   37   34   33
          inv. 180 deg rotation - cart. axis [1,1,0]             

   Cartesian axes

     site n.     atom                  positions (alat units)
         1           Fe  tau(   1) = (   0.0000000   0.0000000   0.0000000  )

   Crystallographic axes

     site n.     atom                  positions (cryst. coord.)
         1           Fe  tau(   1) = (  0.0000000  0.0000000  0.0000000  )

     number of k points=   211  Marzari-Vanderbilt smearing, width (Ry)=  0.0100
                       cart. coord. in units 2pi/alat
        k(    1) = (   0.0000000   0.0000000   0.0000000), wk =   0.0047393
        k(    2) = (   0.0333333  -0.0333333   0.0333333), wk =   0.0047393
        k(    3) = (   0.0666667  -0.0666667   0.0666667), wk =   0.0047393
        k(    4) = (   0.1000000  -0.1000000   0.1000000), wk =   0.0047393
        k(    5) = (   0.1333333  -0.1333333   0.1333333), wk =   0.0047393
        k(    6) = (   0.1666667  -0.1666667   0.1666667), wk =   0.0047393
        k(    7) = (   0.2000000  -0.2000000   0.2000000), wk =   0.0047393
        k(    8) = (   0.2333333  -0.2333333   0.2333333), wk =   0.0047393
        k(    9) = (   0.2666667  -0.2666667   0.2666667), wk =   0.0047393
        k(   10) = (   0.3000000  -0.3000000   0.3000000), wk =   0.0047393
        k(   11) = (   0.3333333  -0.3333333   0.3333333), wk =   0.0047393
        k(   12) = (   0.3666667  -0.3666667   0.3666667), wk =   0.0047393
        k(   13) = (   0.4000000  -0.4000000   0.4000000), wk =   0.0047393
        k(   14) = (   0.4333333  -0.4333333   0.4333333), wk =   0.0047393
        k(   15) = (   0.4666667  -0.4666667   0.4666667), wk =   0.0047393
        k(   16) = (   0.5000000  -0.5000000   0.5000000), wk =   0.0047393
        k(   17) = (   0.5333333  -0.5333333   0.5333333), wk =   0.0047393
        k(   18) = (   0.5666667  -0.5666667   0.5666667), wk =   0.0047393
        k(   19) = (   0.6000000  -0.6000000   0.6000000), wk =   0.0047393
        k(   20) = (   0.6333333  -0.6333333   0.6333333), wk =   0.0047393
        k(   21) = (   0.6666667  -0.6666667   0.6666667), wk =   0.0047393
        k(   22) = (   0.7000000  -0.7000000   0.7000000), wk =   0.0047393
        k(   23) = (   0.7333333  -0.7333333   0.7333333), wk =   0.0047393
        k(   24) = (   0.7666667  -0.7666667   0.7666667), wk =   0.0047393
        k(   25) = (   0.8000000  -0.8000000   0.8000000), wk =   0.0047393
        k(   26) = (   0.8333333  -0.8333333   0.8333333), wk =   0.0047393
        k(   27) = (   0.8666667  -0.8666667   0.8666667), wk =   0.0047393
        k(   28) = (   0.9000000  -0.9000000   0.9000000), wk =   0.0047393
        k(   29) = (   0.9333333  -0.9333333   0.9333333), wk =   0.0047393
        k(   30) = (   0.9666667  -0.9666667   0.9666667), wk =   0.0047393
        k(   31) = (   1.0000000  -1.0000000   1.0000000), wk =   0.0047393
        k(   32) = (   0.9666667  -0.9833333   0.9833333), wk =   0.0047393
        k(   33) = (   0.9333333  -0.9666667   0.9666667), wk =   0.0047393
        k(   34) = (   0.9000000  -0.9500000   0.9500000), wk =   0.0047393
        k(   35) = (   0.8666667  -0.9333333   0.9333333), wk =   0.0047393
        k(   36) = (   0.8333333  -0.9166667   0.9166667), wk =   0.0047393
        k(   37) = (   0.8000000  -0.9000000   0.9000000), wk =   0.0047393
        k(   38) = (   0.7666667  -0.8833333   0.8833333), wk =   0.0047393
        k(   39) = (   0.7333333  -0.8666667   0.8666667), wk =   0.0047393
        k(   40) = (   0.7000000  -0.8500000   0.8500000), wk =   0.0047393
        k(   41) = (   0.6666667  -0.8333333   0.8333333), wk =   0.0047393
        k(   42) = (   0.6333333  -0.8166667   0.8166667), wk =   0.0047393
        k(   43) = (   0.6000000  -0.8000000   0.8000000), wk =   0.0047393
        k(   44) = (   0.5666667  -0.7833333   0.7833333), wk =   0.0047393
        k(   45) = (   0.5333333  -0.7666667   0.7666667), wk =   0.0047393
        k(   46) = (   0.5000000  -0.7500000   0.7500000), wk =   0.0047393
        k(   47) = (   0.4666667  -0.7333333   0.7333333), wk =   0.0047393
        k(   48) = (   0.4333333  -0.7166667   0.7166667), wk =   0.0047393
        k(   49) = (   0.4000000  -0.7000000   0.7000000), wk =   0.0047393
        k(   50) = (   0.3666667  -0.6833333   0.6833333), wk =   0.0047393
        k(   51) = (   0.3333333  -0.6666667   0.6666667), wk =   0.0047393
        k(   52) = (   0.3000000  -0.6500000   0.6500000), wk =   0.0047393
        k(   53) = (   0.2666667  -0.6333333   0.6333333), wk =   0.0047393
        k(   54) = (   0.2333333  -0.6166667   0.6166667), wk =   0.0047393
        k(   55) = (   0.2000000  -0.6000000   0.6000000), wk =   0.0047393
        k(   56) = (   0.1666667  -0.5833333   0.5833333), wk =   0.0047393
        k(   57) = (   0.1333333  -0.5666667   0.5666667), wk =   0.0047393
        k(   58) = (   0.1000000  -0.5500000   0.5500000), wk =   0.0047393
        k(   59) = (   0.0666667  -0.5333333   0.5333333), wk =   0.0047393
        k(   60) = (   0.0333333  -0.5166667   0.5166667), wk =   0.0047393
        k(   61) = (   0.0000000  -0.5000000   0.5000000), wk =   0.0047393
        k(   62) = (   0.0000000  -0.4833333   0.4833333), wk =   0.0047393
        k(   63) = (   0.0000000  -0.4666667   0.4666667), wk =   0.0047393
        k(   64) = (   0.0000000  -0.4500000   0.4500000), wk =   0.0047393
        k(   65) = (   0.0000000  -0.4333333   0.4333333), wk =   0.0047393
        k(   66) = (   0.0000000  -0.4166667   0.4166667), wk =   0.0047393
        k(   67) = (   0.0000000  -0.4000000   0.4000000), wk =   0.0047393
        k(   68) = (   0.0000000  -0.3833333   0.3833333), wk =   0.0047393
        k(   69) = (   0.0000000  -0.3666667   0.3666667), wk =   0.0047393
        k(   70) = (   0.0000000  -0.3500000   0.3500000), wk =   0.0047393
        k(   71) = (   0.0000000  -0.3333333   0.3333333), wk =   0.0047393
        k(   72) = (   0.0000000  -0.3166667   0.3166667), wk =   0.0047393
        k(   73) = (   0.0000000  -0.3000000   0.3000000), wk =   0.0047393
        k(   74) = (   0.0000000  -0.2833333   0.2833333), wk =   0.0047393
        k(   75) = (   0.0000000  -0.2666667   0.2666667), wk =   0.0047393
        k(   76) = (   0.0000000  -0.2500000   0.2500000), wk =   0.0047393
        k(   77) = (   0.0000000  -0.2333333   0.2333333), wk =   0.0047393
        k(   78) = (   0.0000000  -0.2166667   0.2166667), wk =   0.0047393
        k(   79) = (   0.0000000  -0.2000000   0.2000000), wk =   0.0047393
        k(   80) = (   0.0000000  -0.1833333   0.1833333), wk =   0.0047393
        k(   81) = (   0.0000000  -0.1666667   0.1666667), wk =   0.0047393
        k(   82) = (   0.0000000  -0.1500000   0.1500000), wk =   0.0047393
        k(   83) = (   0.0000000  -0.1333333   0.1333333), wk =   0.0047393
        k(   84) = (   0.0000000  -0.1166667   0.1166667), wk =   0.0047393
        k(   85) = (   0.0000000  -0.1000000   0.1000000), wk =   0.0047393
        k(   86) = (   0.0000000  -0.0833333   0.0833333), wk =   0.0047393
        k(   87) = (   0.0000000  -0.0666667   0.0666667), wk =   0.0047393
        k(   88) = (   0.0000000  -0.0500000   0.0500000), wk =   0.0047393
        k(   89) = (   0.0000000  -0.0333333   0.0333333), wk =   0.0047393
        k(   90) = (   0.0000000  -0.0166667   0.0166667), wk =   0.0047393
        k(   91) = (   0.0000000   0.0000000   0.0000000), wk =   0.0047393
        k(   92) = (   0.0000000   0.0000000   0.0166667), wk =   0.0047393
        k(   93) = (   0.0000000   0.0000000   0.0333333), wk =   0.0047393
        k(   94) = (   0.0000000   0.0000000   0.0500000), wk =   0.0047393
        k(   95) = (   0.0000000   0.0000000   0.0666667), wk =   0.0047393
        k(   96) = (   0.0000000   0.0000000   0.0833333), wk =   0.0047393
        k(   97) = (   0.0000000   0.0000000   0.1000000), wk =   0.0047393
        k(   98) = (   0.0000000   0.0000000   0.1166667), wk =   0.0047393
        k(   99) = (   0.0000000   0.0000000   0.1333333), wk =   0.0047393
        k(  100) = (   0.0000000   0.0000000   0.1500000), wk =   0.0047393
        k(  101) = (   0.0000000   0.0000000   0.1666667), wk =   0.0047393
        k(  102) = (   0.0000000   0.0000000   0.1833333), wk =   0.0047393
        k(  103) = (   0.0000000   0.0000000   0.2000000), wk =   0.0047393
        k(  104) = (   0.0000000   0.0000000   0.2166667), wk =   0.0047393
        k(  105) = (   0.0000000   0.0000000   0.2333333), wk =   0.0047393
        k(  106) = (   0.0000000   0.0000000   0.2500000), wk =   0.0047393
        k(  107) = (   0.0000000   0.0000000   0.2666667), wk =   0.0047393
        k(  108) = (   0.0000000   0.0000000   0.2833333), wk =   0.0047393
        k(  109) = (   0.0000000   0.0000000   0.3000000), wk =   0.0047393
        k(  110) = (   0.0000000   0.0000000   0.3166667), wk =   0.0047393
        k(  111) = (   0.0000000   0.0000000   0.3333333), wk =   0.0047393
        k(  112) = (   0.0000000   0.0000000   0.3500000), wk =   0.0047393
        k(  113) = (   0.0000000   0.0000000   0.3666667), wk =   0.0047393
        k(  114) = (   0.0000000   0.0000000   0.3833333), wk =   0.0047393
        k(  115) = (   0.0000000   0.0000000   0.4000000), wk =   0.0047393
        k(  116) = (   0.0000000   0.0000000   0.4166667), wk =   0.0047393
        k(  117) = (   0.0000000   0.0000000   0.4333333), wk =   0.0047393
        k(  118) = (   0.0000000   0.0000000   0.4500000), wk =   0.0047393
        k(  119) = (   0.0000000   0.0000000   0.4666667), wk =   0.0047393
        k(  120) = (   0.0000000   0.0000000   0.4833333), wk =   0.0047393
        k(  121) = (   0.0000000   0.0000000   0.5000000), wk =   0.0047393
        k(  122) = (   0.0000000  -0.0166667   0.5000000), wk =   0.0047393
        k(  123) = (   0.0000000  -0.0333333   0.5000000), wk =   0.0047393
        k(  124) = (   0.0000000  -0.0500000   0.5000000), wk =   0.0047393
        k(  125) = (   0.0000000  -0.0666667   0.5000000), wk =   0.0047393
        k(  126) = (   0.0000000  -0.0833333   0.5000000), wk =   0.0047393
        k(  127) = (   0.0000000  -0.1000000   0.5000000), wk =   0.0047393
        k(  128) = (   0.0000000  -0.1166667   0.5000000), wk =   0.0047393
        k(  129) = (   0.0000000  -0.1333333   0.5000000), wk =   0.0047393
        k(  130) = (   0.0000000  -0.1500000   0.5000000), wk =   0.0047393
        k(  131) = (   0.0000000  -0.1666667   0.5000000), wk =   0.0047393
        k(  132) = (   0.0000000  -0.1833333   0.5000000), wk =   0.0047393
        k(  133) = (   0.0000000  -0.2000000   0.5000000), wk =   0.0047393
        k(  134) = (   0.0000000  -0.2166667   0.5000000), wk =   0.0047393
        k(  135) = (   0.0000000  -0.2333333   0.5000000), wk =   0.0047393
        k(  136) = (   0.0000000  -0.2500000   0.5000000), wk =   0.0047393
        k(  137) = (   0.0000000  -0.2666667   0.5000000), wk =   0.0047393
        k(  138) = (   0.0000000  -0.2833333   0.5000000), wk =   0.0047393
        k(  139) = (   0.0000000  -0.3000000   0.5000000), wk =   0.0047393
        k(  140) = (   0.0000000  -0.3166667   0.5000000), wk =   0.0047393
        k(  141) = (   0.0000000  -0.3333333   0.5000000), wk =   0.0047393
        k(  142) = (   0.0000000  -0.3500000   0.5000000), wk =   0.0047393
        k(  143) = (   0.0000000  -0.3666667   0.5000000), wk =   0.0047393
        k(  144) = (   0.0000000  -0.3833333   0.5000000), wk =   0.0047393
        k(  145) = (   0.0000000  -0.4000000   0.5000000), wk =   0.0047393
        k(  146) = (   0.0000000  -0.4166667   0.5000000), wk =   0.0047393
        k(  147) = (   0.0000000  -0.4333333   0.5000000), wk =   0.0047393
        k(  148) = (   0.0000000  -0.4500000   0.5000000), wk =   0.0047393
        k(  149) = (   0.0000000  -0.4666667   0.5000000), wk =   0.0047393
        k(  150) = (   0.0000000  -0.4833333   0.5000000), wk =   0.0047393
        k(  151) = (   0.0000000  -0.5000000   0.5000000), wk =   0.0047393
        k(  152) = (   0.0000000  -0.4833333   0.5000000), wk =   0.0047393
        k(  153) = (   0.0000000  -0.4666667   0.5000000), wk =   0.0047393
        k(  154) = (   0.0000000  -0.4500000   0.5000000), wk =   0.0047393
        k(  155) = (   0.0000000  -0.4333333   0.5000000), wk =   0.0047393
        k(  156) = (   0.0000000  -0.4166667   0.5000000), wk =   0.0047393
        k(  157) = (   0.0000000  -0.4000000   0.5000000), wk =   0.0047393
        k(  158) = (   0.0000000  -0.3833333   0.5000000), wk =   0.0047393
        k(  159) = (   0.0000000  -0.3666667   0.5000000), wk =   0.0047393
        k(  160) = (   0.0000000  -0.3500000   0.5000000), wk =   0.0047393
        k(  161) = (   0.0000000  -0.3333333   0.5000000), wk =   0.0047393
        k(  162) = (   0.0000000  -0.3166667   0.5000000), wk =   0.0047393
        k(  163) = (   0.0000000  -0.3000000   0.5000000), wk =   0.0047393
        k(  164) = (   0.0000000  -0.2833333   0.5000000), wk =   0.0047393
        k(  165) = (   0.0000000  -0.2666667   0.5000000), wk =   0.0047393
        k(  166) = (   0.0000000  -0.2500000   0.5000000), wk =   0.0047393
        k(  167) = (   0.0000000  -0.2333333   0.5000000), wk =   0.0047393
        k(  168) = (   0.0000000  -0.2166667   0.5000000), wk =   0.0047393
        k(  169) = (   0.0000000  -0.2000000   0.5000000), wk =   0.0047393
        k(  170) = (   0.0000000  -0.1833333   0.5000000), wk =   0.0047393
        k(  171) = (   0.0000000  -0.1666667   0.5000000), wk =   0.0047393
        k(  172) = (   0.0000000  -0.1500000   0.5000000), wk =   0.0047393
        k(  173) = (   0.0000000  -0.1333333   0.5000000), wk =   0.0047393
        k(  174) = (   0.0000000  -0.1166667   0.5000000), wk =   0.0047393
        k(  175) = (   0.0000000  -0.1000000   0.5000000), wk =   0.0047393
        k(  176) = (   0.0000000  -0.0833333   0.5000000), wk =   0.0047393
        k(  177) = (   0.0000000  -0.0666667   0.5000000), wk =   0.0047393
        k(  178) = (   0.0000000  -0.0500000   0.5000000), wk =   0.0047393
        k(  179) = (   0.0000000  -0.0333333   0.5000000), wk =   0.0047393
        k(  180) = (   0.0000000  -0.0166667   0.5000000), wk =   0.0047393
        k(  181) = (   0.0000000   0.0000000   0.5000000), wk =   0.0047393
        k(  182) = (   0.0333333  -0.0333333   0.5166667), wk =   0.0047393
        k(  183) = (   0.0666667  -0.0666667   0.5333333), wk =   0.0047393
        k(  184) = (   0.1000000  -0.1000000   0.5500000), wk =   0.0047393
        k(  185) = (   0.1333333  -0.1333333   0.5666667), wk =   0.0047393
        k(  186) = (   0.1666667  -0.1666667   0.5833333), wk =   0.0047393
        k(  187) = (   0.2000000  -0.2000000   0.6000000), wk =   0.0047393
        k(  188) = (   0.2333333  -0.2333333   0.6166667), wk =   0.0047393
        k(  189) = (   0.2666667  -0.2666667   0.6333333), wk =   0.0047393
        k(  190) = (   0.3000000  -0.3000000   0.6500000), wk =   0.0047393
        k(  191) = (   0.3333333  -0.3333333   0.6666667), wk =   0.0047393
        k(  192) = (   0.3666667  -0.3666667   0.6833333), wk =   0.0047393
        k(  193) = (   0.4000000  -0.4000000   0.7000000), wk =   0.0047393
        k(  194) = (   0.4333333  -0.4333333   0.7166667), wk =   0.0047393
        k(  195) = (   0.4666667  -0.4666667   0.7333333), wk =   0.0047393
        k(  196) = (   0.5000000  -0.5000000   0.7500000), wk =   0.0047393
        k(  197) = (   0.5333333  -0.5333333   0.7666667), wk =   0.0047393
        k(  198) = (   0.5666667  -0.5666667   0.7833333), wk =   0.0047393
        k(  199) = (   0.6000000  -0.6000000   0.8000000), wk =   0.0047393
        k(  200) = (   0.6333333  -0.6333333   0.8166667), wk =   0.0047393
        k(  201) = (   0.6666667  -0.6666667   0.8333333), wk =   0.0047393
        k(  202) = (   0.7000000  -0.7000000   0.8500000), wk =   0.0047393
        k(  203) = (   0.7333333  -0.7333333   0.8666667), wk =   0.0047393
        k(  204) = (   0.7666667  -0.7666667   0.8833333), wk =   0.0047393
        k(  205) = (   0.8000000  -0.8000000   0.9000000), wk =   0.0047393
        k(  206) = (   0.8333333  -0.8333333   0.9166667), wk =   0.0047393
        k(  207) = (   0.8666667  -0.8666667   0.9333333), wk =   0.0047393
        k(  208) = (   0.9000000  -0.9000000   0.9500000), wk =   0.0047393
        k(  209) = (   0.9333333  -0.9333333   0.9666667), wk =   0.0047393
        k(  210) = (   0.9666667  -0.9666667   0.9833333), wk =   0.0047393
        k(  211) = (   1.0000000  -1.0000000   1.0000000), wk =   0.0047393

                       cryst. coord.
        k(    1) = (   0.0000000   0.0000000   0.0000000), wk =   0.0047393
        k(    2) = (   0.0166667  -0.0166667   0.0166667), wk =   0.0047393
        k(    3) = (   0.0333333  -0.0333333   0.0333333), wk =   0.0047393
        k(    4) = (   0.0500000  -0.0500000   0.0500000), wk =   0.0047393
        k(    5) = (   0.0666667  -0.0666667   0.0666667), wk =   0.0047393
        k(    6) = (   0.0833333  -0.0833333   0.0833333), wk =   0.0047393
        k(    7) = (   0.1000000  -0.1000000   0.1000000), wk =   0.0047393
        k(    8) = (   0.1166667  -0.1166667   0.1166667), wk =   0.0047393
        k(    9) = (   0.1333333  -0.1333333   0.1333333), wk =   0.0047393
        k(   10) = (   0.1500000  -0.1500000   0.1500000), wk =   0.0047393
        k(   11) = (   0.1666667  -0.1666667   0.1666667), wk =   0.0047393
        k(   12) = (   0.1833333  -0.1833333   0.1833333), wk =   0.0047393
        k(   13) = (   0.2000000  -0.2000000   0.2000000), wk =   0.0047393
        k(   14) = (   0.2166667  -0.2166667   0.2166667), wk =   0.0047393
        k(   15) = (   0.2333333  -0.2333333   0.2333333), wk =   0.0047393
        k(   16) = (   0.2500000  -0.2500000   0.2500000), wk =   0.0047393
        k(   17) = (   0.2666667  -0.2666667   0.2666667), wk =   0.0047393
        k(   18) = (   0.2833333  -0.2833333   0.2833333), wk =   0.0047393
        k(   19) = (   0.3000000  -0.3000000   0.3000000), wk =   0.0047393
        k(   20) = (   0.3166667  -0.3166667   0.3166667), wk =   0.0047393
        k(   21) = (   0.3333333  -0.3333333   0.3333333), wk =   0.0047393
        k(   22) = (   0.3500000  -0.3500000   0.3500000), wk =   0.0047393
        k(   23) = (   0.3666667  -0.3666667   0.3666667), wk =   0.0047393
        k(   24) = (   0.3833333  -0.3833333   0.3833333), wk =   0.0047393
        k(   25) = (   0.4000000  -0.4000000   0.4000000), wk =   0.0047393
        k(   26) = (   0.4166667  -0.4166667   0.4166667), wk =   0.0047393
        k(   27) = (   0.4333333  -0.4333333   0.4333333), wk =   0.0047393
        k(   28) = (   0.4500000  -0.4500000   0.4500000), wk =   0.0047393
        k(   29) = (   0.4666667  -0.4666667   0.4666667), wk =   0.0047393
        k(   30) = (   0.4833333  -0.4833333   0.4833333), wk =   0.0047393
        k(   31) = (   0.5000000  -0.5000000   0.5000000), wk =   0.0047393
        k(   32) = (   0.4833333  -0.4833333   0.5000000), wk =   0.0047393
        k(   33) = (   0.4666667  -0.4666667   0.5000000), wk =   0.0047393
        k(   34) = (   0.4500000  -0.4500000   0.5000000), wk =   0.0047393
        k(   35) = (   0.4333333  -0.4333333   0.5000000), wk =   0.0047393
        k(   36) = (   0.4166667  -0.4166667   0.5000000), wk =   0.0047393
        k(   37) = (   0.4000000  -0.4000000   0.5000000), wk =   0.0047393
        k(   38) = (   0.3833333  -0.3833333   0.5000000), wk =   0.0047393
        k(   39) = (   0.3666667  -0.3666667   0.5000000), wk =   0.0047393
        k(   40) = (   0.3500000  -0.3500000   0.5000000), wk =   0.0047393
        k(   41) = (   0.3333333  -0.3333333   0.5000000), wk =   0.0047393
        k(   42) = (   0.3166667  -0.3166667   0.5000000), wk =   0.0047393
        k(   43) = (   0.3000000  -0.3000000   0.5000000), wk =   0.0047393
        k(   44) = (   0.2833333  -0.2833333   0.5000000), wk =   0.0047393
        k(   45) = (   0.2666667  -0.2666667   0.5000000), wk =   0.0047393
        k(   46) = (   0.2500000  -0.2500000   0.5000000), wk =   0.0047393
        k(   47) = (   0.2333333  -0.2333333   0.5000000), wk =   0.0047393
        k(   48) = (   0.2166667  -0.2166667   0.5000000), wk =   0.0047393
        k(   49) = (   0.2000000  -0.2000000   0.5000000), wk =   0.0047393
        k(   50) = (   0.1833333  -0.1833333   0.5000000), wk =   0.0047393
        k(   51) = (   0.1666667  -0.1666667   0.5000000), wk =   0.0047393
        k(   52) = (   0.1500000  -0.1500000   0.5000000), wk =   0.0047393
        k(   53) = (   0.1333333  -0.1333333   0.5000000), wk =   0.0047393
        k(   54) = (   0.1166667  -0.1166667   0.5000000), wk =   0.0047393
        k(   55) = (   0.1000000  -0.1000000   0.5000000), wk =   0.0047393
        k(   56) = (   0.0833333  -0.0833333   0.5000000), wk =   0.0047393
        k(   57) = (   0.0666667  -0.0666667   0.5000000), wk =   0.0047393
        k(   58) = (   0.0500000  -0.0500000   0.5000000), wk =   0.0047393
        k(   59) = (   0.0333333  -0.0333333   0.5000000), wk =   0.0047393
        k(   60) = (   0.0166667  -0.0166667   0.5000000), wk =   0.0047393
        k(   61) = (   0.0000000   0.0000000   0.5000000), wk =   0.0047393
        k(   62) = (   0.0000000   0.0000000   0.4833333), wk =   0.0047393
        k(   63) = (   0.0000000   0.0000000   0.4666667), wk =   0.0047393
        k(   64) = (   0.0000000   0.0000000   0.4500000), wk =   0.0047393
        k(   65) = (   0.0000000   0.0000000   0.4333333), wk =   0.0047393
        k(   66) = (   0.0000000   0.0000000   0.4166667), wk =   0.0047393
        k(   67) = (   0.0000000   0.0000000   0.4000000), wk =   0.0047393
        k(   68) = (   0.0000000   0.0000000   0.3833333), wk =   0.0047393
        k(   69) = (   0.0000000   0.0000000   0.3666667), wk =   0.0047393
        k(   70) = (   0.0000000   0.0000000   0.3500000), wk =   0.0047393
        k(   71) = (   0.0000000   0.0000000   0.3333333), wk =   0.0047393
        k(   72) = (   0.0000000   0.0000000   0.3166667), wk =   0.0047393
        k(   73) = (   0.0000000   0.0000000   0.3000000), wk =   0.0047393
        k(   74) = (   0.0000000   0.0000000   0.2833333), wk =   0.0047393
        k(   75) = (   0.0000000   0.0000000   0.2666667), wk =   0.0047393
        k(   76) = (   0.0000000   0.0000000   0.2500000), wk =   0.0047393
        k(   77) = (   0.0000000   0.0000000   0.2333333), wk =   0.0047393
        k(   78) = (   0.0000000   0.0000000   0.2166667), wk =   0.0047393
        k(   79) = (   0.0000000   0.0000000   0.2000000), wk =   0.0047393
        k(   80) = (   0.0000000   0.0000000   0.1833333), wk =   0.0047393
        k(   81) = (   0.0000000   0.0000000   0.1666667), wk =   0.0047393
        k(   82) = (   0.0000000   0.0000000   0.1500000), wk =   0.0047393
        k(   83) = (   0.0000000   0.0000000   0.1333333), wk =   0.0047393
        k(   84) = (   0.0000000   0.0000000   0.1166667), wk =   0.0047393
        k(   85) = (   0.0000000   0.0000000   0.1000000), wk =   0.0047393
        k(   86) = (   0.0000000   0.0000000   0.0833333), wk =   0.0047393
        k(   87) = (   0.0000000   0.0000000   0.0666667), wk =   0.0047393
        k(   88) = (   0.0000000   0.0000000   0.0500000), wk =   0.0047393
        k(   89) = (   0.0000000   0.0000000   0.0333333), wk =   0.0047393
        k(   90) = (   0.0000000   0.0000000   0.0166667), wk =   0.0047393
        k(   91) = (   0.0000000   0.0000000   0.0000000), wk =   0.0047393
        k(   92) = (   0.0083333   0.0083333   0.0083333), wk =   0.0047393
        k(   93) = (   0.0166667   0.0166667   0.0166667), wk =   0.0047393
        k(   94) = (   0.0250000   0.0250000   0.0250000), wk =   0.0047393
        k(   95) = (   0.0333333   0.0333333   0.0333333), wk =   0.0047393
        k(   96) = (   0.0416667   0.0416667   0.0416667), wk =   0.0047393
        k(   97) = (   0.0500000   0.0500000   0.0500000), wk =   0.0047393
        k(   98) = (   0.0583333   0.0583333   0.0583333), wk =   0.0047393
        k(   99) = (   0.0666667   0.0666667   0.0666667), wk =   0.0047393
        k(  100) = (   0.0750000   0.0750000   0.0750000), wk =   0.0047393
        k(  101) = (   0.0833333   0.0833333   0.0833333), wk =   0.0047393
        k(  102) = (   0.0916667   0.0916667   0.0916667), wk =   0.0047393
        k(  103) = (   0.1000000   0.1000000   0.1000000), wk =   0.0047393
        k(  104) = (   0.1083333   0.1083333   0.1083333), wk =   0.0047393
        k(  105) = (   0.1166667   0.1166667   0.1166667), wk =   0.0047393
        k(  106) = (   0.1250000   0.1250000   0.1250000), wk =   0.0047393
        k(  107) = (   0.1333333   0.1333333   0.1333333), wk =   0.0047393
        k(  108) = (   0.1416667   0.1416667   0.1416667), wk =   0.0047393
        k(  109) = (   0.1500000   0.1500000   0.1500000), wk =   0.0047393
        k(  110) = (   0.1583333   0.1583333   0.1583333), wk =   0.0047393
        k(  111) = (   0.1666667   0.1666667   0.1666667), wk =   0.0047393
        k(  112) = (   0.1750000   0.1750000   0.1750000), wk =   0.0047393
        k(  113) = (   0.1833333   0.1833333   0.1833333), wk =   0.0047393
        k(  114) = (   0.1916667   0.1916667   0.1916667), wk =   0.0047393
        k(  115) = (   0.2000000   0.2000000   0.2000000), wk =   0.0047393
        k(  116) = (   0.2083333   0.2083333   0.2083333), wk =   0.0047393
        k(  117) = (   0.2166667   0.2166667   0.2166667), wk =   0.0047393
        k(  118) = (   0.2250000   0.2250000   0.2250000), wk =   0.0047393
        k(  119) = (   0.2333333   0.2333333   0.2333333), wk =   0.0047393
        k(  120) = (   0.2416667   0.2416667   0.2416667), wk =   0.0047393
        k(  121) = (   0.2500000   0.2500000   0.2500000), wk =   0.0047393
        k(  122) = (   0.2416667   0.2416667   0.2583333), wk =   0.0047393
        k(  123) = (   0.2333333   0.2333333   0.2666667), wk =   0.0047393
        k(  124) = (   0.2250000   0.2250000   0.2750000), wk =   0.0047393
        k(  125) = (   0.2166667   0.2166667   0.2833333), wk =   0.0047393
        k(  126) = (   0.2083333   0.2083333   0.2916667), wk =   0.0047393
        k(  127) = (   0.2000000   0.2000000   0.3000000), wk =   0.0047393
        k(  128) = (   0.1916667   0.1916667   0.3083333), wk =   0.0047393
        k(  129) = (   0.1833333   0.1833333   0.3166667), wk =   0.0047393
        k(  130) = (   0.1750000   0.1750000   0.3250000), wk =   0.0047393
        k(  131) = (   0.1666667   0.1666667   0.3333333), wk =   0.0047393
        k(  132) = (   0.1583333   0.1583333   0.3416667), wk =   0.0047393
        k(  133) = (   0.1500000   0.1500000   0.3500000), wk =   0.0047393
        k(  134) = (   0.1416667   0.1416667   0.3583333), wk =   0.0047393
        k(  135) = (   0.1333333   0.1333333   0.3666667), wk =   0.0047393
        k(  136) = (   0.1250000   0.1250000   0.3750000), wk =   0.0047393
        k(  137) = (   0.1166667   0.1166667   0.3833333), wk =   0.0047393
        k(  138) = (   0.1083333   0.1083333   0.3916667), wk =   0.0047393
        k(  139) = (   0.1000000   0.1000000   0.4000000), wk =   0.0047393
        k(  140) = (   0.0916667   0.0916667   0.4083333), wk =   0.0047393
        k(  141) = (   0.0833333   0.0833333   0.4166667), wk =   0.0047393
        k(  142) = (   0.0750000   0.0750000   0.4250000), wk =   0.0047393
        k(  143) = (   0.0666667   0.0666667   0.4333333), wk =   0.0047393
        k(  144) = (   0.0583333   0.0583333   0.4416667), wk =   0.0047393
        k(  145) = (   0.0500000   0.0500000   0.4500000), wk =   0.0047393
        k(  146) = (   0.0416667   0.0416667   0.4583333), wk =   0.0047393
        k(  147) = (   0.0333333   0.0333333   0.4666667), wk =   0.0047393
        k(  148) = (   0.0250000   0.0250000   0.4750000), wk =   0.0047393
        k(  149) = (   0.0166667   0.0166667   0.4833333), wk =   0.0047393
        k(  150) = (   0.0083333   0.0083333   0.4916667), wk =   0.0047393
        k(  151) = (   0.0000000   0.0000000   0.5000000), wk =   0.0047393
        k(  152) = (   0.0083333   0.0083333   0.4916667), wk =   0.0047393
        k(  153) = (   0.0166667   0.0166667   0.4833333), wk =   0.0047393
        k(  154) = (   0.0250000   0.0250000   0.4750000), wk =   0.0047393
        k(  155) = (   0.0333333   0.0333333   0.4666667), wk =   0.0047393
        k(  156) = (   0.0416667   0.0416667   0.4583333), wk =   0.0047393
        k(  157) = (   0.0500000   0.0500000   0.4500000), wk =   0.0047393
        k(  158) = (   0.0583333   0.0583333   0.4416667), wk =   0.0047393
        k(  159) = (   0.0666667   0.0666667   0.4333333), wk =   0.0047393
        k(  160) = (   0.0750000   0.0750000   0.4250000), wk =   0.0047393
        k(  161) = (   0.0833333   0.0833333   0.4166667), wk =   0.0047393
        k(  162) = (   0.0916667   0.0916667   0.4083333), wk =   0.0047393
        k(  163) = (   0.1000000   0.1000000   0.4000000), wk =   0.0047393
        k(  164) = (   0.1083333   0.1083333   0.3916667), wk =   0.0047393
        k(  165) = (   0.1166667   0.1166667   0.3833333), wk =   0.0047393
        k(  166) = (   0.1250000   0.1250000   0.3750000), wk =   0.0047393
        k(  167) = (   0.1333333   0.1333333   0.3666667), wk =   0.0047393
        k(  168) = (   0.1416667   0.1416667   0.3583333), wk =   0.0047393
        k(  169) = (   0.1500000   0.1500000   0.3500000), wk =   0.0047393
        k(  170) = (   0.1583333   0.1583333   0.3416667), wk =   0.0047393
        k(  171) = (   0.1666667   0.1666667   0.3333333), wk =   0.0047393
        k(  172) = (   0.1750000   0.1750000   0.3250000), wk =   0.0047393
        k(  173) = (   0.1833333   0.1833333   0.3166667), wk =   0.0047393
        k(  174) = (   0.1916667   0.1916667   0.3083333), wk =   0.0047393
        k(  175) = (   0.2000000   0.2000000   0.3000000), wk =   0.0047393
        k(  176) = (   0.2083333   0.2083333   0.2916667), wk =   0.0047393
        k(  177) = (   0.2166667   0.2166667   0.2833333), wk =   0.0047393
        k(  178) = (   0.2250000   0.2250000   0.2750000), wk =   0.0047393
        k(  179) = (   0.2333333   0.2333333   0.2666667), wk =   0.0047393
        k(  180) = (   0.2416667   0.2416667   0.2583333), wk =   0.0047393
        k(  181) = (   0.2500000   0.2500000   0.2500000), wk =   0.0047393
        k(  182) = (   0.2583333   0.2250000   0.2583333), wk =   0.0047393
        k(  183) = (   0.2666667   0.2000000   0.2666667), wk =   0.0047393
        k(  184) = (   0.2750000   0.1750000   0.2750000), wk =   0.0047393
        k(  185) = (   0.2833333   0.1500000   0.2833333), wk =   0.0047393
        k(  186) = (   0.2916667   0.1250000   0.2916667), wk =   0.0047393
        k(  187) = (   0.3000000   0.1000000   0.3000000), wk =   0.0047393
        k(  188) = (   0.3083333   0.0750000   0.3083333), wk =   0.0047393
        k(  189) = (   0.3166667   0.0500000   0.3166667), wk =   0.0047393
        k(  190) = (   0.3250000   0.0250000   0.3250000), wk =   0.0047393
        k(  191) = (   0.3333333   0.0000000   0.3333333), wk =   0.0047393
        k(  192) = (   0.3416667  -0.0250000   0.3416667), wk =   0.0047393
        k(  193) = (   0.3500000  -0.0500000   0.3500000), wk =   0.0047393
        k(  194) = (   0.3583333  -0.0750000   0.3583333), wk =   0.0047393
        k(  195) = (   0.3666667  -0.1000000   0.3666667), wk =   0.0047393
        k(  196) = (   0.3750000  -0.1250000   0.3750000), wk =   0.0047393
        k(  197) = (   0.3833333  -0.1500000   0.3833333), wk =   0.0047393
        k(  198) = (   0.3916667  -0.1750000   0.3916667), wk =   0.0047393
        k(  199) = (   0.4000000  -0.2000000   0.4000000), wk =   0.0047393
        k(  200) = (   0.4083333  -0.2250000   0.4083333), wk =   0.0047393
        k(  201) = (   0.4166667  -0.2500000   0.4166667), wk =   0.0047393
        k(  202) = (   0.4250000  -0.2750000   0.4250000), wk =   0.0047393
        k(  203) = (   0.4333333  -0.3000000   0.4333333), wk =   0.0047393
        k(  204) = (   0.4416667  -0.3250000   0.4416667), wk =   0.0047393
        k(  205) = (   0.4500000  -0.3500000   0.4500000), wk =   0.0047393
        k(  206) = (   0.4583333  -0.3750000   0.4583333), wk =   0.0047393
        k(  207) = (   0.4666667  -0.4000000   0.4666667), wk =   0.0047393
        k(  208) = (   0.4750000  -0.4250000   0.4750000), wk =   0.0047393
        k(  209) = (   0.4833333  -0.4500000   0.4833333), wk =   0.0047393
        k(  210) = (   0.4916667  -0.4750000   0.4916667), wk =   0.0047393
        k(  211) = (   0.5000000  -0.5000000   0.5000000), wk =   0.0047393

     Dense  grid:     9189 G-vectors     FFT dimensions: (  30,  30,  30)

     Smooth grid:     1745 G-vectors     FFT dimensions: (  18,  18,  18)

     Estimated max dynamical RAM per process >       2.25MB

     Estimated total allocated dynamical RAM >       4.50MB
     Generating pointlists ...
     new r_m :   0.3572 (alat units)  1.9362 (a.u.) for type    1

     The potential is recalculated from file :
     ./fe_bcc.save/charge-density.dat

     Starting wfc are    6 randomized atomic wfcs +    2 random wfc

     Band Structure Calculation
     Davidson diagonalization with overlap

     Computing kpt #:     1
     total cpu time spent up to now is        0.3 secs

     Computing kpt #:     2
     total cpu time spent up to now is        0.3 secs

     Computing kpt #:     3
     total cpu time spent up to now is        0.4 secs

     Computing kpt #:     4
     total cpu time spent up to now is        0.4 secs

     Computing kpt #:     5
     total cpu time spent up to now is        0.4 secs

     Computing kpt #:     6
     total cpu time spent up to now is        0.4 secs

     Computing kpt #:     7
     total cpu time spent up to now is        0.5 secs

     Computing kpt #:     8
     total cpu time spent up to now is        0.5 secs

     Computing kpt #:     9
     total cpu time spent up to now is        0.5 secs

     Computing kpt #:    10
     total cpu time spent up to now is        0.6 secs

     Computing kpt #:    11
     total cpu time spent up to now is        0.6 secs

     Computing kpt #:    12
     total cpu time spent up to now is        0.6 secs

     Computing kpt #:    13
     total cpu time spent up to now is        0.6 secs

     Computing kpt #:    14
     total cpu time spent up to now is        0.7 secs

     Computing kpt #:    15
     total cpu time spent up to now is        0.7 secs

     Computing kpt #:    16
     total cpu time spent up to now is        0.7 secs

     Computing kpt #:    17
     total cpu time spent up to now is        0.7 secs

     Computing kpt #:    18
     total cpu time spent up to now is        0.8 secs

     Computing kpt #:    19
     total cpu time spent up to now is        0.8 secs

     Computing kpt #:    20
     total cpu time spent up to now is        0.8 secs

     Computing kpt #:    21
     total cpu time spent up to now is        0.8 secs

     Computing kpt #:    22
     total cpu time spent up to now is        0.8 secs

     Computing kpt #:    23
     total cpu time spent up to now is        0.9 secs

     Computing kpt #:    24
     total cpu time spent up to now is        0.9 secs

     Computing kpt #:    25
     total cpu time spent up to now is        0.9 secs

     Computing kpt #:    26
     total cpu time spent up to now is        0.9 secs

     Computing kpt #:    27
     total cpu time spent up to now is        0.9 secs

     Computing kpt #:    28
     total cpu time spent up to now is        1.0 secs

     Computing kpt #:    29
     total cpu time spent up to now is        1.0 secs

     Computing kpt #:    30
     total cpu time spent up to now is        1.0 secs

     Computing kpt #:    31
     total cpu time spent up to now is        1.0 secs

     Computing kpt #:    32
     total cpu time spent up to now is        1.1 secs

     Computing kpt #:    33
     total cpu time spent up to now is        1.1 secs

     Computing kpt #:    34
     total cpu time spent up to now is        1.1 secs

     Computing kpt #:    35
     total cpu time spent up to now is        1.2 secs

     Computing kpt #:    36
     total cpu time spent up to now is        1.2 secs

     Computing kpt #:    37
     total cpu time spent up to now is        1.2 secs

     Computing kpt #:    38
     total cpu time spent up to now is        1.2 secs

     Computing kpt #:    39
     total cpu time spent up to now is        1.2 secs

     Computing kpt #:    40
     total cpu time spent up to now is        1.3 secs

     Computing kpt #:    41
     total cpu time spent up to now is        1.3 secs

     Computing kpt #:    42
     total cpu time spent up to now is        1.3 secs

     Computing kpt #:    43
     total cpu time spent up to now is        1.3 secs

     Computing kpt #:    44
     total cpu time spent up to now is        1.3 secs

     Computing kpt #:    45
     total cpu time spent up to now is        1.4 secs

     Computing kpt #:    46
     total cpu time spent up to now is        1.4 secs

     Computing kpt #:    47
     total cpu time spent up to now is        1.4 secs

     Computing kpt #:    48
     total cpu time spent up to now is        1.4 secs

     Computing kpt #:    49
     total cpu time spent up to now is        1.4 secs

     Computing kpt #:    50
     total cpu time spent up to now is        1.5 secs

     Computing kpt #:    51
     total cpu time spent up to now is        1.5 secs

     Computing kpt #:    52
     total cpu time spent up to now is        1.5 secs

     Computing kpt #:    53
     total cpu time spent up to now is        1.5 secs

     Computing kpt #:    54
     total cpu time spent up to now is        1.6 secs

     Computing kpt #:    55
     total cpu time spent up to now is        1.6 secs

     Computing kpt #:    56
     total cpu time spent up to now is        1.6 secs

     Computing kpt #:    57
     total cpu time spent up to now is        1.6 secs

     Computing kpt #:    58
     total cpu time spent up to now is        1.7 secs

     Computing kpt #:    59
     total cpu time spent up to now is        1.7 secs

     Computing kpt #:    60
     total cpu time spent up to now is        1.7 secs

     Computing kpt #:    61
     total cpu time spent up to now is        1.7 secs

     Computing kpt #:    62
     total cpu time spent up to now is        1.8 secs

     Computing kpt #:    63
     total cpu time spent up to now is        1.8 secs

     Computing kpt #:    64
     total cpu time spent up to now is        1.8 secs

     Computing kpt #:    65
     total cpu time spent up to now is        1.9 secs

     Computing kpt #:    66
     total cpu time spent up to now is        1.9 secs

     Computing kpt #:    67
     total cpu time spent up to now is        1.9 secs

     Computing kpt #:    68
     total cpu time spent up to now is        1.9 secs

     Computing kpt #:    69
     total cpu time spent up to now is        2.0 secs

     Computing kpt #:    70
     total cpu time spent up to now is        2.0 secs

     Computing kpt #:    71
     total cpu time spent up to now is        2.0 secs

     Computing kpt #:    72
     total cpu time spent up to now is        2.1 secs

     Computing kpt #:    73
     total cpu time spent up to now is        2.1 secs

     Computing kpt #:    74
     total cpu time spent up to now is        2.1 secs

     Computing kpt #:    75
     total cpu time spent up to now is        2.1 secs

     Computing kpt #:    76
     total cpu time spent up to now is        2.2 secs

     Computing kpt #:    77
     total cpu time spent up to now is        2.2 secs

     Computing kpt #:    78
     total cpu time spent up to now is        2.2 secs

     Computing kpt #:    79
     total cpu time spent up to now is        2.3 secs

     Computing kpt #:    80
     total cpu time spent up to now is        2.3 secs

     Computing kpt #:    81
     total cpu time spent up to now is        2.3 secs

     Computing kpt #:    82
     total cpu time spent up to now is        2.3 secs

     Computing kpt #:    83
     total cpu time spent up to now is        2.4 secs

     Computing kpt #:    84
     total cpu time spent up to now is        2.4 secs

     Computing kpt #:    85
     total cpu time spent up to now is        2.4 secs

     Computing kpt #:    86
     total cpu time spent up to now is        2.5 secs

     Computing kpt #:    87
     total cpu time spent up to now is        2.5 secs

     Computing kpt #:    88
     total cpu time spent up to now is        2.5 secs

     Computing kpt #:    89
     total cpu time spent up to now is        2.6 secs

     Computing kpt #:    90
     total cpu time spent up to now is        2.6 secs

     Computing kpt #:    91
     total cpu time spent up to now is        2.7 secs

     Computing kpt #:    92
     total cpu time spent up to now is        2.7 secs

     Computing kpt #:    93
     total cpu time spent up to now is        2.7 secs

     Computing kpt #:    94
     total cpu time spent up to now is        2.7 secs

     Computing kpt #:    95
     total cpu time spent up to now is        2.8 secs

     Computing kpt #:    96
     total cpu time spent up to now is        2.8 secs

     Computing kpt #:    97
     total cpu time spent up to now is        2.8 secs

     Computing kpt #:    98
     total cpu time spent up to now is        2.9 secs

     Computing kpt #:    99
     total cpu time spent up to now is        2.9 secs

     Computing kpt #:   100
     total cpu time spent up to now is        2.9 secs

     Computing kpt #:   101
     total cpu time spent up to now is        3.0 secs

     Computing kpt #:   102
     total cpu time spent up to now is        3.0 secs

     Computing kpt #:   103
     total cpu time spent up to now is        3.0 secs

     Computing kpt #:   104
     total cpu time spent up to now is        3.1 secs

     Computing kpt #:   105
     total cpu time spent up to now is        3.1 secs

     Computing kpt #:   106
     total cpu time spent up to now is        3.1 secs

     Computing kpt #:   107
     total cpu time spent up to now is        3.2 secs

     Computing kpt #:   108
     total cpu time spent up to now is        3.2 secs

     Computing kpt #:   109
     total cpu time spent up to now is        3.2 secs

     Computing kpt #:   110
     total cpu time spent up to now is        3.3 secs

     Computing kpt #:   111
     total cpu time spent up to now is        3.3 secs

     Computing kpt #:   112
     total cpu time spent up to now is        3.3 secs

     Computing kpt #:   113
     total cpu time spent up to now is        3.4 secs

     Computing kpt #:   114
     total cpu time spent up to now is        3.4 secs

     Computing kpt #:   115
     total cpu time spent up to now is        3.4 secs

     Computing kpt #:   116
     total cpu time spent up to now is        3.4 secs

     Computing kpt #:   117
     total cpu time spent up to now is        3.5 secs

     Computing kpt #:   118
     total cpu time spent up to now is        3.5 secs

     Computing kpt #:   119
     total cpu time spent up to now is        3.5 secs

     Computing kpt #:   120
     total cpu time spent up to now is        3.6 secs

     Computing kpt #:   121
     total cpu time spent up to now is        3.6 secs

     Computing kpt #:   122
     total cpu time spent up to now is        3.6 secs

     Computing kpt #:   123
     total cpu time spent up to now is        3.7 secs

     Computing kpt #:   124
     total cpu time spent up to now is        3.7 secs

     Computing kpt #:   125
     total cpu time spent up to now is        3.7 secs

     Computing kpt #:   126
     total cpu time spent up to now is        3.7 secs

     Computing kpt #:   127
     total cpu time spent up to now is        3.8 secs

     Computing kpt #:   128
     total cpu time spent up to now is        3.8 secs

     Computing kpt #:   129
     total cpu time spent up to now is        3.8 secs

     Computing kpt #:   130
     total cpu time spent up to now is        3.8 secs

     Computing kpt #:   131
     total cpu time spent up to now is        3.9 secs

     Computing kpt #:   132
     total cpu time spent up to now is        3.9 secs

     Computing kpt #:   133
     total cpu time spent up to now is        3.9 secs

     Computing kpt #:   134
     total cpu time spent up to now is        4.0 secs

     Computing kpt #:   135
     total cpu time spent up to now is        4.0 secs

     Computing kpt #:   136
     total cpu time spent up to now is        4.0 secs

     Computing kpt #:   137
     total cpu time spent up to now is        4.1 secs

     Computing kpt #:   138
     total cpu time spent up to now is        4.2 secs

     Computing kpt #:   139
     total cpu time spent up to now is        4.2 secs

     Computing kpt #:   140
     total cpu time spent up to now is        4.2 secs

     Computing kpt #:   141
     total cpu time spent up to now is        4.3 secs

     Computing kpt #:   142
     total cpu time spent up to now is        4.3 secs

     Computing kpt #:   143
     total cpu time spent up to now is        4.3 secs

     Computing kpt #:   144
     total cpu time spent up to now is        4.4 secs

     Computing kpt #:   145
     total cpu time spent up to now is        4.4 secs

     Computing kpt #:   146
     total cpu time spent up to now is        4.4 secs

     Computing kpt #:   147
     total cpu time spent up to now is        4.4 secs

     Computing kpt #:   148
     total cpu time spent up to now is        4.5 secs

     Computing kpt #:   149
     total cpu time spent up to now is        4.5 secs

     Computing kpt #:   150
     total cpu time spent up to now is        4.5 secs

     Computing kpt #:   151
     total cpu time spent up to now is        4.5 secs

     Computing kpt #:   152
     total cpu time spent up to now is        4.6 secs

     Computing kpt #:   153
     total cpu time spent up to now is        4.6 secs

     Computing kpt #:   154
     total cpu time spent up to now is        4.7 secs

     Computing kpt #:   155
     total cpu time spent up to now is        4.7 secs

     Computing kpt #:   156
     total cpu time spent up to now is        4.7 secs

     Computing kpt #:   157
     total cpu time spent up to now is        4.7 secs

     Computing kpt #:   158
     total cpu time spent up to now is        4.8 secs

     Computing kpt #:   159
     total cpu time spent up to now is        4.8 secs

     Computing kpt #:   160
     total cpu time spent up to now is        4.8 secs

     Computing kpt #:   161
     total cpu time spent up to now is        4.9 secs

     Computing kpt #:   162
     total cpu time spent up to now is        4.9 secs

     Computing kpt #:   163
     total cpu time spent up to now is        4.9 secs

     Computing kpt #:   164
     total cpu time spent up to now is        5.0 secs

     Computing kpt #:   165
     total cpu time spent up to now is        5.0 secs

     Computing kpt #:   166
     total cpu time spent up to now is        5.0 secs

     Computing kpt #:   167
     total cpu time spent up to now is        5.1 secs

     Computing kpt #:   168
     total cpu time spent up to now is        5.1 secs

     Computing kpt #:   169
     total cpu time spent up to now is        5.1 secs

     Computing kpt #:   170
     total cpu time spent up to now is        5.2 secs

     Computing kpt #:   171
     total cpu time spent up to now is        5.2 secs

     Computing kpt #:   172
     total cpu time spent up to now is        5.2 secs

     Computing kpt #:   173
     total cpu time spent up to now is        5.3 secs

     Computing kpt #:   174
     total cpu time spent up to now is        5.3 secs

     Computing kpt #:   175
     total cpu time spent up to now is        5.3 secs

     Computing kpt #:   176
     total cpu time spent up to now is        5.3 secs

     Computing kpt #:   177
     total cpu time spent up to now is        5.4 secs

     Computing kpt #:   178
     total cpu time spent up to now is        5.4 secs

     Computing kpt #:   179
     total cpu time spent up to now is        5.4 secs

     Computing kpt #:   180
     total cpu time spent up to now is        5.4 secs

     Computing kpt #:   181
     total cpu time spent up to now is        5.5 secs

     Computing kpt #:   182
     total cpu time spent up to now is        5.5 secs

     Computing kpt #:   183
     total cpu time spent up to now is        5.5 secs

     Computing kpt #:   184
     total cpu time spent up to now is        5.5 secs

     Computing kpt #:   185
     total cpu time spent up to now is        5.6 secs

     Computing kpt #:   186
     total cpu time spent up to now is        5.6 secs

     Computing kpt #:   187
     total cpu time spent up to now is        5.6 secs

     Computing kpt #:   188
     total cpu time spent up to now is        5.7 secs

     Computing kpt #:   189
     total cpu time spent up to now is        5.7 secs

     Computing kpt #:   190
     total cpu time spent up to now is        5.7 secs

     Computing kpt #:   191
     total cpu time spent up to now is        5.7 secs

     Computing kpt #:   192
     total cpu time spent up to now is        5.7 secs

     Computing kpt #:   193
     total cpu time spent up to now is        5.8 secs

     Computing kpt #:   194
     total cpu time spent up to now is        5.8 secs

     Computing kpt #:   195
     total cpu time spent up to now is        5.8 secs

     Computing kpt #:   196
     total cpu time spent up to now is        5.8 secs

     Computing kpt #:   197
     total cpu time spent up to now is        5.9 secs

     Computing kpt #:   198
     total cpu time spent up to now is        5.9 secs

     Computing kpt #:   199
     total cpu time spent up to now is        5.9 secs

     Computing kpt #:   200
     total cpu time spent up to now is        5.9 secs

     Computing kpt #:   201
     total cpu time spent up to now is        5.9 secs

     Computing kpt #:   202
     total cpu time spent up to now is        6.0 secs

     Computing kpt #:   203
     total cpu time spent up to now is        6.0 secs

     Computing kpt #:   204
     total cpu time spent up to now is        6.0 secs

     Computing kpt #:   205
     total cpu time spent up to now is        6.0 secs

     Computing kpt #:   206
     total cpu time spent up to now is        6.1 secs

     Computing kpt #:   207
     total cpu time spent up to now is        6.1 secs

     Computing kpt #:   208
     total cpu time spent up to now is        6.1 secs

     Computing kpt #:   209
     total cpu time spent up to now is        6.1 secs

     Computing kpt #:   210
     total cpu time spent up to now is        6.1 secs

     Computing kpt #:   211
     total cpu time spent up to now is        6.2 secs

     Computing kpt #:   212
     total cpu time spent up to now is        6.2 secs

     Computing kpt #:   213
     total cpu time spent up to now is        6.2 secs

     Computing kpt #:   214
     total cpu time spent up to now is        6.3 secs

     Computing kpt #:   215
     total cpu time spent up to now is        6.3 secs

     Computing kpt #:   216
     total cpu time spent up to now is        6.3 secs

     Computing kpt #:   217
     total cpu time spent up to now is        6.3 secs

     Computing kpt #:   218
     total cpu time spent up to now is        6.3 secs

     Computing kpt #:   219
     total cpu time spent up to now is        6.4 secs

     Computing kpt #:   220
     total cpu time spent up to now is        6.4 secs

     Computing kpt #:   221
     total cpu time spent up to now is        6.4 secs

     Computing kpt #:   222
     total cpu time spent up to now is        6.4 secs

     Computing kpt #:   223
     total cpu time spent up to now is        6.4 secs

     Computing kpt #:   224
     total cpu time spent up to now is        6.5 secs

     Computing kpt #:   225
     total cpu time spent up to now is        6.5 secs

     Computing kpt #:   226
     total cpu time spent up to now is        6.5 secs

     Computing kpt #:   227
     total cpu time spent up to now is        6.5 secs

     Computing kpt #:   228
     total cpu time spent up to now is        6.5 secs

     Computing kpt #:   229
     total cpu time spent up to now is        6.6 secs

     Computing kpt #:   230
     total cpu time spent up to now is        6.6 secs

     Computing kpt #:   231
     total cpu time spent up to now is        6.6 secs

     Computing kpt #:   232
     total cpu time spent up to now is        6.6 secs

     Computing kpt #:   233
     total cpu time spent up to now is        6.6 secs

     Computing kpt #:   234
     total cpu time spent up to now is        6.7 secs

     Computing kpt #:   235
     total cpu time spent up to now is        6.7 secs

     Computing kpt #:   236
     total cpu time spent up to now is        6.7 secs

     Computing kpt #:   237
     total cpu time spent up to now is        6.7 secs

     Computing kpt #:   238
     total cpu time spent up to now is        6.7 secs

     Computing kpt #:   239
     total cpu time spent up to now is        6.8 secs

     Computing kpt #:   240
     total cpu time spent up to now is        6.8 secs

     Computing kpt #:   241
     total cpu time spent up to now is        6.8 secs

     Computing kpt #:   242
     total cpu time spent up to now is        6.8 secs

     Computing kpt #:   243
     total cpu time spent up to now is        6.9 secs

     Computing kpt #:   244
     total cpu time spent up to now is        6.9 secs

     Computing kpt #:   245
     total cpu time spent up to now is        6.9 secs

     Computing kpt #:   246
     total cpu time spent up to now is        6.9 secs

     Computing kpt #:   247
     total cpu time spent up to now is        6.9 secs

     Computing kpt #:   248
     total cpu time spent up to now is        7.0 secs

     Computing kpt #:   249
     total cpu time spent up to now is        7.0 secs

     Computing kpt #:   250
     total cpu time spent up to now is        7.0 secs

     Computing kpt #:   251
     total cpu time spent up to now is        7.0 secs

     Computing kpt #:   252
     total cpu time spent up to now is        7.0 secs

     Computing kpt #:   253
     total cpu time spent up to now is        7.1 secs

     Computing kpt #:   254
     total cpu time spent up to now is        7.1 secs

     Computing kpt #:   255
     total cpu time spent up to now is        7.1 secs

     Computing kpt #:   256
     total cpu time spent up to now is        7.1 secs

     Computing kpt #:   257
     total cpu time spent up to now is        7.2 secs

     Computing kpt #:   258
     total cpu time spent up to now is        7.2 secs

     Computing kpt #:   259
     total cpu time spent up to now is        7.2 secs

     Computing kpt #:   260
     total cpu time spent up to now is        7.2 secs

     Computing kpt #:   261
     total cpu time spent up to now is        7.3 secs

     Computing kpt #:   262
     total cpu time spent up to now is        7.3 secs

     Computing kpt #:   263
     total cpu time spent up to now is        7.3 secs

     Computing kpt #:   264
     total cpu time spent up to now is        7.3 secs

     Computing kpt #:   265
     total cpu time spent up to now is        7.4 secs

     Computing kpt #:   266
[...]

     4.7234  12.2743  12.3222  12.4371  14.0221  14.0882  35.9047  36.6611

          k = 0.0000-0.0500 0.0500 (   219 PWs)   bands (ev):

     4.6445  12.2995  12.3274  12.3918  14.0479  14.0862  36.3028  36.7565

          k = 0.0000-0.0333 0.0333 (   219 PWs)   bands (ev):

     4.5878  12.3177  12.3305  12.3593  14.0675  14.0848  36.6064  36.8185

          k = 0.0000-0.0167 0.0167 (   225 PWs)   bands (ev):

     4.5538  12.3287  12.3319  12.3389  14.0796  14.0840  36.7980  36.8528

          k = 0.0000 0.0000 0.0000 (   225 PWs)   bands (ev):

     4.5424  12.3324  12.3324  12.3324  14.0837  14.0837  36.8638  36.8638

          k = 0.0000 0.0000 0.0167 (   225 PWs)   bands (ev):

     4.5481  12.3321  12.3321  12.3341  14.0805  14.0850  36.8273  36.8621

          k = 0.0000 0.0000 0.0333 (   225 PWs)   bands (ev):

     4.5651  12.3314  12.3314  12.3391  14.0710  14.0886  36.7216  36.8565

          k = 0.0000 0.0000 0.0500 (   225 PWs)   bands (ev):

     4.5935  12.3301  12.3301  12.3476  14.0552  14.0948  36.5568  36.8459

          k = 0.0000 0.0000 0.0667 (   217 PWs)   bands (ev):

     4.6332  12.3290  12.3290  12.3597  14.0332  14.1033  36.3459  36.8284

          k = 0.0000 0.0000 0.0833 (   213 PWs)   bands (ev):

     4.6841  12.3272  12.3272  12.3752  14.0049  14.1141  36.1013  36.8010

          k = 0.0000 0.0000 0.1000 (   213 PWs)   bands (ev):

     4.7460  12.3251  12.3251  12.3936  13.9704  14.1271  35.8339  36.7603

          k = 0.0000 0.0000 0.1167 (   213 PWs)   bands (ev):

     4.8189  12.3228  12.3228  12.4152  13.9299  14.1423  35.5523  36.7023

          k = 0.0000 0.0000 0.1333 (   213 PWs)   bands (ev):

     4.9027  12.3206  12.3206  12.4400  13.8835  14.1594  35.2629  36.6226

          k = 0.0000 0.0000 0.1500 (   213 PWs)   bands (ev):

     4.9970  12.3187  12.3187  12.4680  13.8313  14.1784  34.9706  36.5172

          k = 0.0000 0.0000 0.1667 (   213 PWs)   bands (ev):

     5.1018  12.3172  12.3172  12.4990  13.7733  14.1991  34.6788  36.3825

          k = 0.0000 0.0000 0.1833 (   213 PWs)   bands (ev):

     5.2168  12.3163  12.3163  12.5331  13.7099  14.2214  34.3903  36.2166

          k = 0.0000 0.0000 0.2000 (   213 PWs)   bands (ev):

     5.3417  12.3162  12.3162  12.5700  13.6412  14.2451  34.1070  36.0190

          k = 0.0000 0.0000 0.2167 (   217 PWs)   bands (ev):

     5.4763  12.3169  12.3169  12.6097  13.5674  14.2700  33.8302  35.7906

          k = 0.0000 0.0000 0.2333 (   217 PWs)   bands (ev):

     5.6201  12.3192  12.3192  12.6523  13.4886  14.2962  33.5610  35.5342

          k = 0.0000 0.0000 0.2500 (   217 PWs)   bands (ev):

     5.7728  12.3230  12.3230  12.6975  13.4052  14.3233  33.3002  35.2528

          k = 0.0000 0.0000 0.2667 (   217 PWs)   bands (ev):

     5.9341  12.3285  12.3285  12.7452  13.3173  14.3514  33.0484  34.9501

          k = 0.0000 0.0000 0.2833 (   213 PWs)   bands (ev):

     6.1033  12.3362  12.3362  12.7953  13.2254  14.3807  32.8058  34.6299

          k = 0.0000 0.0000 0.3000 (   213 PWs)   bands (ev):

     6.2800  12.3459  12.3459  12.8478  13.1295  14.4106  32.5728  34.2949

          k = 0.0000 0.0000 0.3167 (   213 PWs)   bands (ev):

     6.4636  12.3580  12.3580  12.9024  13.0301  14.4413  32.3494  33.9483

          k = 0.0000 0.0000 0.3333 (   213 PWs)   bands (ev):

     6.6534  12.3727  12.3727  12.9274  12.9591  14.4731  32.1357  33.5926

          k = 0.0000 0.0000 0.3500 (   213 PWs)   bands (ev):

     6.8486  12.3903  12.3903  12.8217  13.0176  14.5061  31.9316  33.2300

          k = 0.0000 0.0000 0.3667 (   213 PWs)   bands (ev):

     7.0485  12.4109  12.4109  12.7134  13.0779  14.5407  31.7372  32.8623

          k = 0.0000 0.0000 0.3833 (   217 PWs)   bands (ev):

     7.2520  12.4347  12.4347  12.6029  13.1398  14.5767  31.5521  32.4908

          k = 0.0000 0.0000 0.4000 (   217 PWs)   bands (ev):

     7.4581  12.4620  12.4620  12.4904  13.2032  14.6160  31.3763  32.1170

          k = 0.0000 0.0000 0.4167 (   217 PWs)   bands (ev):

     7.6657  12.3763  12.4928  12.4928  13.2678  14.6586  31.2096  31.7418

          k = 0.0000 0.0000 0.4333 (   217 PWs)   bands (ev):

     7.8733  12.2610  12.5273  12.5273  13.3335  14.7056  31.0517  31.3662

          k = 0.0000 0.0000 0.4500 (   217 PWs)   bands (ev):

     8.0795  12.1447  12.5656  12.5656  13.4002  14.7581  30.9024  30.9910

          k = 0.0000 0.0000 0.4667 (   217 PWs)   bands (ev):

     8.2828  12.0280  12.6079  12.6079  13.4676  14.8174  30.6168  30.6168

          k = 0.0000 0.0000 0.4833 (   225 PWs)   bands (ev):

     8.4813  11.9107  12.6539  12.6539  13.5350  14.8849  30.2442  30.2442

          k = 0.0000 0.0000 0.5000 (   233 PWs)   bands (ev):

     8.6732  11.7938  12.7037  12.7037  13.6033  14.9625  29.8738  29.8738

          k = 0.0000-0.0167 0.5000 (   228 PWs)   bands (ev):

     8.6762  11.7882  12.6915  12.7126  13.6159  14.9631  29.6819  29.8784

          k = 0.0000-0.0333 0.5000 (   226 PWs)   bands (ev):

     8.6852  11.7720  12.6566  12.7370  13.6513  14.9649  29.3105  29.8921

          k = 0.0000-0.0500 0.5000 (   222 PWs)   bands (ev):

     8.7001  11.7474  12.6040  12.7752  13.7049  14.9680  28.8909  29.9149

          k = 0.0000-0.0667 0.5000 (   222 PWs)   bands (ev):

     8.7203  11.7174  12.5382  12.8244  13.7715  14.9719  28.4543  29.9466

          k = 0.0000-0.0833 0.5000 (   222 PWs)   bands (ev):

     8.7454  11.6851  12.4638  12.8820  13.8468  14.9768  28.0120  29.9874

          k = 0.0000-0.1000 0.5000 (   222 PWs)   bands (ev):

     8.7749  11.6533  12.3842  12.9455  13.9276  14.9823  27.5696  30.0370

          k = 0.0000-0.1167 0.5000 (   222 PWs)   bands (ev):

     8.8079  11.6245  12.3016  13.0130  14.0116  14.9885  27.1304  30.0954

          k = 0.0000-0.1333 0.5000 (   224 PWs)   bands (ev):

     8.8436  11.6005  12.2175  13.0829  14.0971  14.9950  26.6967  30.1625

          k = 0.0000-0.1500 0.5000 (   224 PWs)   bands (ev):

     8.8811  11.5838  12.1333  13.1539  14.1830  15.0014  26.2701  30.2381

          k = 0.0000-0.1667 0.5000 (   224 PWs)   bands (ev):

     8.9191  11.5758  12.0497  13.2250  14.2684  15.0075  25.8518  30.3221

          k = 0.0000-0.1833 0.5000 (   223 PWs)   bands (ev):

     8.9566  11.5783  11.9675  13.2953  14.3525  15.0128  25.4430  30.4141

          k = 0.0000-0.2000 0.5000 (   223 PWs)   bands (ev):

     8.9924  11.5924  11.8872  13.3642  14.4347  15.0167  25.0447  30.5141

          k = 0.0000-0.2167 0.5000 (   223 PWs)   bands (ev):

     9.0256  11.6194  11.8094  13.4309  14.5145  15.0188  24.6580  30.6216

          k = 0.0000-0.2333 0.5000 (   223 PWs)   bands (ev):

     9.0552  11.6600  11.7343  13.4952  14.5916  15.0182  24.2839  30.7364

          k = 0.0000-0.2500 0.5000 (   223 PWs)   bands (ev):

     9.0806  11.6624  11.7148  13.5564  14.6655  15.0143  23.9235  30.8579

          k = 0.0000-0.2667 0.5000 (   221 PWs)   bands (ev):

     9.1015  11.5940  11.7838  13.6143  14.7361  15.0064  23.5778  30.9575

          k = 0.0000-0.2833 0.5000 (   219 PWs)   bands (ev):

     9.1178  11.5293  11.8667  13.6688  14.8029  14.9933  23.2482  30.9225

          k = 0.0000-0.3000 0.5000 (   219 PWs)   bands (ev):

     9.1297  11.4685  11.9627  13.7194  14.8656  14.9743  22.9358  30.8868

          k = 0.0000-0.3167 0.5000 (   220 PWs)   bands (ev):

     9.1376  11.4118  12.0707  13.7660  14.9241  14.9484  22.6420  30.8511

          k = 0.0000-0.3333 0.5000 (   218 PWs)   bands (ev):

     9.1420  11.3597  12.1896  13.8087  14.9150  14.9782  22.3682  30.8160

          k = 0.0000-0.3500 0.5000 (   220 PWs)   bands (ev):

     9.1436  11.3116  12.3175  13.8472  14.8731  15.0277  22.1156  30.7820

          k = 0.0000-0.3667 0.5000 (   220 PWs)   bands (ev):

     9.1429  11.2684  12.4524  13.8816  14.8226  15.0724  21.8857  30.7496

          k = 0.0000-0.3833 0.5000 (   218 PWs)   bands (ev):

     9.1409  11.2300  12.5923  13.9119  14.7633  15.1121  21.6796  30.7195

          k = 0.0000-0.4000 0.5000 (   220 PWs)   bands (ev):

     9.1377  11.1964  12.7343  13.9380  14.6956  15.1467  21.4987  30.6921

          k = 0.0000-0.4167 0.5000 (   222 PWs)   bands (ev):

     9.1342  11.1678  12.8749  13.9599  14.6210  15.1762  21.3439  30.6680

          k = 0.0000-0.4333 0.5000 (   222 PWs)   bands (ev):

     9.1306  11.1443  13.0102  13.9776  14.5425  15.2005  21.2161  30.6476

          k = 0.0000-0.4500 0.5000 (   221 PWs)   bands (ev):

     9.1275  11.1260  13.1338  13.9912  14.4646  15.2195  21.1161  30.6313

          k = 0.0000-0.4667 0.5000 (   217 PWs)   bands (ev):

     9.1251  11.1132  13.2371  14.0008  14.3950  15.2332  21.0442  30.6194

          k = 0.0000-0.4833 0.5000 (   214 PWs)   bands (ev):

     9.1236  11.1055  13.3079  14.0063  14.3451  15.2414  21.0010  30.6122

          k = 0.0000-0.5000 0.5000 (   214 PWs)   bands (ev):

     9.1231  11.1028  13.3335  14.0080  14.3265  15.2441  20.9866  30.6098

          k = 0.0000-0.4833 0.5000 (   214 PWs)   bands (ev):

     9.1236  11.1055  13.3079  14.0063  14.3451  15.2414  21.0010  30.6122

          k = 0.0000-0.4667 0.5000 (   217 PWs)   bands (ev):

     9.1251  11.1132  13.2371  14.0008  14.3950  15.2332  21.0442  30.6194

          k = 0.0000-0.4500 0.5000 (   221 PWs)   bands (ev):

     9.1275  11.1260  13.1338  13.9912  14.4646  15.2195  21.1161  30.6313

          k = 0.0000-0.4333 0.5000 (   222 PWs)   bands (ev):

     9.1306  11.1443  13.0102  13.9776  14.5425  15.2005  21.2161  30.6476

          k = 0.0000-0.4167 0.5000 (   222 PWs)   bands (ev):

     9.1342  11.1678  12.8749  13.9599  14.6210  15.1762  21.3439  30.6680

          k = 0.0000-0.4000 0.5000 (   220 PWs)   bands (ev):

     9.1377  11.1964  12.7343  13.9380  14.6956  15.1467  21.4987  30.6921

          k = 0.0000-0.3833 0.5000 (   218 PWs)   bands (ev):

     9.1409  11.2300  12.5923  13.9119  14.7633  15.1121  21.6796  30.7195

          k = 0.0000-0.3667 0.5000 (   220 PWs)   bands (ev):

     9.1429  11.2684  12.4524  13.8816  14.8226  15.0724  21.8857  30.7496

          k = 0.0000-0.3500 0.5000 (   220 PWs)   bands (ev):

     9.1436  11.3116  12.3175  13.8472  14.8731  15.0277  22.1156  30.7820

          k = 0.0000-0.3333 0.5000 (   218 PWs)   bands (ev):

     9.1420  11.3597  12.1896  13.8087  14.9150  14.9782  22.3682  30.8160

          k = 0.0000-0.3167 0.5000 (   220 PWs)   bands (ev):

     9.1376  11.4118  12.0707  13.7660  14.9241  14.9484  22.6420  30.8511

          k = 0.0000-0.3000 0.5000 (   219 PWs)   bands (ev):

     9.1297  11.4685  11.9627  13.7194  14.8656  14.9743  22.9358  30.8868

          k = 0.0000-0.2833 0.5000 (   219 PWs)   bands (ev):

     9.1178  11.5293  11.8667  13.6688  14.8029  14.9933  23.2482  30.9225

          k = 0.0000-0.2667 0.5000 (   221 PWs)   bands (ev):

     9.1015  11.5940  11.7838  13.6143  14.7361  15.0064  23.5778  30.9575

          k = 0.0000-0.2500 0.5000 (   223 PWs)   bands (ev):

     9.0806  11.6624  11.7148  13.5564  14.6655  15.0143  23.9235  30.8579

          k = 0.0000-0.2333 0.5000 (   223 PWs)   bands (ev):

     9.0552  11.6600  11.7343  13.4952  14.5916  15.0182  24.2839  30.7364

          k = 0.0000-0.2167 0.5000 (   223 PWs)   bands (ev):

     9.0256  11.6194  11.8094  13.4309  14.5145  15.0188  24.6580  30.6216

          k = 0.0000-0.2000 0.5000 (   223 PWs)   bands (ev):

     8.9924  11.5924  11.8872  13.3642  14.4347  15.0167  25.0447  30.5141

          k = 0.0000-0.1833 0.5000 (   223 PWs)   bands (ev):

     8.9566  11.5783  11.9675  13.2953  14.3525  15.0128  25.4430  30.4141

          k = 0.0000-0.1667 0.5000 (   224 PWs)   bands (ev):

     8.9191  11.5758  12.0497  13.2250  14.2684  15.0075  25.8518  30.3221

          k = 0.0000-0.1500 0.5000 (   224 PWs)   bands (ev):

     8.8811  11.5838  12.1333  13.1539  14.1830  15.0014  26.2701  30.2381

          k = 0.0000-0.1333 0.5000 (   224 PWs)   bands (ev):

     8.8436  11.6005  12.2175  13.0829  14.0971  14.9950  26.6967  30.1625

          k = 0.0000-0.1167 0.5000 (   222 PWs)   bands (ev):

     8.8079  11.6245  12.3016  13.0130  14.0116  14.9885  27.1304  30.0954

          k = 0.0000-0.1000 0.5000 (   222 PWs)   bands (ev):

     8.7749  11.6533  12.3842  12.9455  13.9276  14.9823  27.5696  30.0370

          k = 0.0000-0.0833 0.5000 (   222 PWs)   bands (ev):

     8.7454  11.6851  12.4638  12.8820  13.8468  14.9768  28.0120  29.9874

          k = 0.0000-0.0667 0.5000 (   222 PWs)   bands (ev):

     8.7203  11.7174  12.5382  12.8244  13.7715  14.9719  28.4543  29.9466

          k = 0.0000-0.0500 0.5000 (   222 PWs)   bands (ev):

     8.7001  11.7474  12.6040  12.7752  13.7049  14.9680  28.8909  29.9149

          k = 0.0000-0.0333 0.5000 (   226 PWs)   bands (ev):

     8.6852  11.7720  12.6566  12.7370  13.6513  14.9649  29.3105  29.8921

          k = 0.0000-0.0167 0.5000 (   228 PWs)   bands (ev):

     8.6762  11.7882  12.6915  12.7126  13.6159  14.9631  29.6819  29.8784

          k = 0.0000 0.0000 0.5000 (   233 PWs)   bands (ev):

     8.6732  11.7938  12.7037  12.7037  13.6033  14.9625  29.8738  29.8738

          k = 0.0333-0.0333 0.5167 (   222 PWs)   bands (ev):

     8.8797  11.6430  12.6764  12.8036  13.7631  15.0611  28.9139  29.1444

          k = 0.0667-0.0667 0.5333 (   222 PWs)   bands (ev):

     9.1164  11.4621  12.5402  12.9610  14.0259  15.2151  27.7921  28.0851

          k = 0.1000-0.1000 0.5500 (   224 PWs)   bands (ev):

     9.3734  11.2886  12.3596  13.1420  14.2689  15.4815  26.6986  26.9962

          k = 0.1333-0.1333 0.5667 (   221 PWs)   bands (ev):

     9.6405  11.1411  12.1615  13.3303  14.4208  15.9021  25.6453  25.9663

          k = 0.1667-0.1667 0.5833 (   219 PWs)   bands (ev):

     9.9058  11.0295  11.9565  13.5158  14.4829  16.4612  24.6357  25.0313

          k = 0.2000-0.2000 0.6000 (   218 PWs)   bands (ev):

    10.1563  10.9594  11.7515  13.6920  14.4812  17.1245  23.6722  24.2127

          k = 0.2333-0.2333 0.6167 (   221 PWs)   bands (ev):

    10.3757  10.9337  11.5529  13.8540  14.4358  17.8683  22.7572  23.5262

          k = 0.2667-0.2667 0.6333 (   219 PWs)   bands (ev):

    10.5435  10.9534  11.3706  13.9976  14.3640  18.6758  21.8937  22.9847

          k = 0.3000-0.3000 0.6500 (   223 PWs)   bands (ev):

    10.6321  11.0166  11.2206  14.1194  14.2841  19.5222  21.0854  22.6064

          k = 0.3333-0.3333 0.6667 (   222 PWs)   bands (ev):

    10.6178  11.1204  11.1204  14.2171  14.2171  20.3375  20.3375  22.4493

          k = 0.3667-0.3667 0.6833 (   222 PWs)   bands (ev):

    10.5157  11.0580  11.2584  14.1772  14.2888  19.6566  20.9203  22.6972

          k = 0.4000-0.4000 0.7000 (   216 PWs)   bands (ev):

    10.3718  11.0058  11.4211  14.1668  14.3336  19.0519  21.1218  23.4784

          k = 0.4333-0.4333 0.7167 (   218 PWs)   bands (ev):

    10.2169  10.9599  11.5943  14.1749  14.3533  18.5341  21.1403  24.5721

          k = 0.4667-0.4667 0.7333 (   220 PWs)   bands (ev):

    10.0731  10.9313  11.7578  14.1844  14.3539  18.1159  21.1168  25.8038

          k = 0.5000-0.5000 0.7500 (   218 PWs)   bands (ev):

     9.9585  10.9310  11.8848  14.1783  14.3485  17.8096  21.0896  26.8529

          k = 0.5333-0.5333 0.7667 (   216 PWs)   bands (ev):

     9.8891  10.9633  11.9458  14.1439  14.3560  17.6247  21.0680  26.5252

          k = 0.5667-0.5667 0.7833 (   219 PWs)   bands (ev):

     9.8760  11.0281  11.9186  14.0767  14.3920  17.5656  21.0556  26.0320

          k = 0.6000-0.6000 0.8000 (   223 PWs)   bands (ev):

     9.9238  11.1237  11.8015  13.9822  14.4571  17.6318  21.0554  25.6092

          k = 0.6333-0.6333 0.8167 (   221 PWs)   bands (ev):

    10.0270  11.2478  11.6128  13.8766  14.5383  17.8173  21.0709  25.2581

          k = 0.6667-0.6667 0.8333 (   223 PWs)   bands (ev):

    10.1647  11.3778  11.4028  13.7855  14.6192  18.1101  21.1056  24.9632

          k = 0.7000-0.7000 0.8500 (   222 PWs)   bands (ev):

    10.2967  11.1205  11.6052  13.7396  14.6906  18.4938  21.1632  24.7043

          k = 0.7333-0.7333 0.8667 (   223 PWs)   bands (ev):

    10.3706  10.8593  11.8841  13.7631  14.7500  18.9496  21.2469  24.4598

          k = 0.7667-0.7667 0.8833 (   224 PWs)   bands (ev):

    10.3567  10.6072  12.2575  13.8629  14.7987  19.4591  21.3599  24.2105

          k = 0.8000-0.8000 0.9000 (   226 PWs)   bands (ev):

    10.2672  10.3739  12.7119  14.0265  14.8385  20.0044  21.5046  23.9424

          k = 0.8333-0.8333 0.9167 (   224 PWs)   bands (ev):

    10.1349  10.1666  13.2145  14.2299  14.8716  20.5674  21.6818  23.6507

          k = 0.8667-0.8667 0.9333 (   228 PWs)   bands (ev):

     9.9904   9.9906  13.7259  14.4448  14.8988  21.1266  21.8874  23.3428

          k = 0.9000-0.9000 0.9500 (   236 PWs)   bands (ev):

     9.8494   9.8578  14.2016  14.6450  14.9204  21.6530  22.1085  23.0406

          k = 0.9333-0.9333 0.9667 (   236 PWs)   bands (ev):

     9.7468   9.7530  14.5950  14.8074  14.9364  22.1035  22.3181  22.7787

          k = 0.9667-0.9667 0.9833 (   236 PWs)   bands (ev):

     9.6845   9.6864  14.8571  14.9129  14.9462  22.4180  22.4741  22.5977

          k = 1.0000-1.0000 1.0000 (   236 PWs)   bands (ev):

     9.6636   9.6636  14.9495  14.9495  14.9495  22.5327  22.5327  22.5327

     Writing output data file fe_bcc.save

     init_run     :      0.15s CPU      0.16s WALL (       1 calls)
     electrons    :     11.45s CPU     13.21s WALL (       1 calls)

     Called by init_run:
     wfcinit      :      0.00s CPU      0.00s WALL (       1 calls)
     wfcinit:atom :      0.01s CPU      0.02s WALL (     422 calls)
     wfcinit:wfcr :      0.59s CPU      0.69s WALL (     422 calls)
     potinit      :      0.01s CPU      0.01s WALL (       1 calls)

     Called by electrons:
     c_bands      :     11.44s CPU     13.21s WALL (       1 calls)
     v_of_rho     :      0.00s CPU      0.00s WALL (       1 calls)
     v_h          :      0.00s CPU      0.00s WALL (       1 calls)
     v_xc         :      0.00s CPU      0.00s WALL (       1 calls)
     newd         :      0.02s CPU      0.02s WALL (       1 calls)

     Called by c_bands:
     init_us_2    :      0.02s CPU      0.02s WALL (     422 calls)
     cegterg      :     10.75s CPU     12.35s WALL (     630 calls)

     Called by sum_band:

     Called by *egterg:
     h_psi        :      7.82s CPU      8.91s WALL (   10254 calls)
     s_psi        :      0.27s CPU      0.35s WALL (   10254 calls)
     g_psi        :      0.04s CPU      0.04s WALL (    9202 calls)
     cdiaghg      :      1.69s CPU      1.80s WALL (    9624 calls)
     cegterg:over :      0.50s CPU      0.62s WALL (    9202 calls)
     cegterg:upda :      0.44s CPU      0.60s WALL (    9202 calls)
     cegterg:last :      0.25s CPU      0.25s WALL (    1996 calls)

     Called by h_psi:
     h_psi:pot    :      7.78s CPU      8.86s WALL (   10254 calls)
     h_psi:calbec :      0.29s CPU      0.36s WALL (   10254 calls)
     vloc_psi     :      7.16s CPU      8.03s WALL (   10254 calls)
     add_vuspsi   :      0.31s CPU      0.43s WALL (   10254 calls)

     General routines
     calbec       :      0.28s CPU      0.34s WALL (   10254 calls)
     fft          :      0.00s CPU      0.00s WALL (       9 calls)
     ffts         :      0.00s CPU      0.00s WALL (       2 calls)
     fftw         :      6.33s CPU      7.13s WALL (   99582 calls)
     interpolate  :      0.00s CPU      0.00s WALL (       2 calls)
     davcio       :      0.00s CPU      0.03s WALL (     422 calls)

     Parallel routines
     fft_scatter  :      0.95s CPU      1.44s WALL (   99593 calls)

     PWSCF        :    12.22s CPU        14.30s WALL


   This run was terminated on:  12:43: 3   6Sep2017            

=------------------------------------------------------------------------------=
   JOB DONE.
=------------------------------------------------------------------------------=
