
# mpiexec: full path to program is /apps/espresso/5.3.0/bin/pw.x
# mpiexec: program arguments are: -npools 1 -i iron_sulfide_2fetypes.main.in
# mpiexec: 16 ranks allocated via PBS select
# mpiexec: 1 OpenMP threads / rank allocated by PBS select
# mpiexec: Job has shared use of the allocated nodes. Disabling process-pinning
# mpiexec: launching program...

# mpiexec: machinefile configured as:
cx1-131-4-12.cx1.hpc.ic.ac.uk:16
#
(cx1-131-4-12.cx1.hpc.ic.ac.uk:0,1,2,3,4,5,6,7,8,9,10,11,12,13,14,15)

     Program PWSCF v.5.3.0 (svn rev. 11974) starts on 20Mar2018 at 23:51:52 

     This program is part of the open-source Quantum ESPRESSO suite
     for quantum simulation of materials; please cite
         "P. Giannozzi et al., J. Phys.:Condens. Matter 21 395502 (2009);
          URL http://www.quantum-espresso.org", 
     in publications or presentations arising from this work. More details at
     http://www.quantum-espresso.org/quote

     Parallel version (MPI & OpenMP), running on      16 processor cores
     Number of MPI processes:                16
     Threads/MPI process:                     1
     R & G space division:  proc/nbgrp/npool/nimage =      16
     Reading input from iron_sulfide_2fetypes.main.in

     Current dimensions of program PWSCF are:
     Max number of different atomic species (ntypx) = 10
     Max number of k-points (npk) =  40000
     Max angular momentum in pseudopotentials (lmaxx) =  3
               file Fe.pbe-spn-kjpaw_psl.0.2.1.UPF: wavefunction(s)  3D renormalized
               file Fe.pbe-spn-kjpaw_psl.0.2.1.UPF: wavefunction(s)  3D renormalized
               file S.pbe-n-kjpaw_psl.0.1.UPF: wavefunction(s)  3P renormalized

     Subspace diagonalization in iterative solution of the eigenvalue problem:
     a serial algorithm will be used

 
     Parallelization info
     --------------------
     sticks:   dense  smooth     PW     G-vecs:    dense   smooth      PW
     Min         152     152     44                 3962     3962     612
     Max         153     153     45                 3965     3965     615
     Sum        2443    2443    707                63421    63421    9811
 
     Generating pointlists ...
     new r_m :   0.2070 (alat units)  1.7363 (a.u.) for type    1
     new r_m :   0.2070 (alat units)  1.7363 (a.u.) for type    2
     new r_m :   0.2070 (alat units)  1.7363 (a.u.) for type    3


     bravais-lattice index     =            0
     lattice parameter (alat)  =       8.3864  a.u.
     unit-cell volume          =     549.4645 (a.u.)^3
     number of atoms/cell      =            6
     number of atomic types    =            3
     number of electrons       =        56.00
     number of Kohn-Sham states=           36
     kinetic-energy cutoff     =      90.0000  Ry
     charge density cutoff     =     360.0000  Ry
     convergence threshold     =      1.0E-08
     mixing beta               =       0.5000
     number of iterations used =            8  plain     mixing
     Exchange-correlation      =  SLA  PW   PBX  PBC ( 1  4  3  4 0 0)
     nstep                     =         1000


     celldm(1)=   8.386435  celldm(2)=   0.000000  celldm(3)=   0.000000
     celldm(4)=   0.000000  celldm(5)=   0.000000  celldm(6)=   0.000000

     crystal axes: (cart. coord. in units of alat)
               a(1) = (   1.000000   0.000000   0.000000 )  
               a(2) = (   0.000000   1.219183   0.000000 )  
               a(3) = (   0.000000   0.000000   0.764080 )  

     reciprocal axes: (cart. coord. in units 2 pi/alat)
               b(1) = (  1.000000  0.000000  0.000000 )  
               b(2) = (  0.000000  0.820222  0.000000 )  
               b(3) = (  0.000000  0.000000  1.308764 )  


     PseudoPot. # 1 for Fe read from file:
     ./Fe.pbe-spn-kjpaw_psl.0.2.1.UPF
     MD5 check sum: a0a08122d52b112de96d1da1d7dd020f
     Pseudo is Projector augmented-wave + core cor, Zval = 16.0
     Generated using "atomic" code by A. Dal Corso  v.5.0.2 svn rev. 9415
     Shape of augmentation charge: PSQ
     Using radial grid of 1191 points,  6 beta functions with: 
                l(1) =   0
                l(2) =   0
                l(3) =   1
                l(4) =   1
                l(5) =   2
                l(6) =   2
     Q(r) pseudized with 0 coefficients 


     PseudoPot. # 2 for Fe read from file:
     ./Fe.pbe-spn-kjpaw_psl.0.2.1.UPF
     MD5 check sum: a0a08122d52b112de96d1da1d7dd020f
     Pseudo is Projector augmented-wave + core cor, Zval = 16.0
     Generated using "atomic" code by A. Dal Corso  v.5.0.2 svn rev. 9415
     Shape of augmentation charge: PSQ
     Using radial grid of 1191 points,  6 beta functions with: 
                l(1) =   0
                l(2) =   0
                l(3) =   1
                l(4) =   1
                l(5) =   2
                l(6) =   2
     Q(r) pseudized with 0 coefficients 


     PseudoPot. # 3 for  S read from file:
     ./S.pbe-n-kjpaw_psl.0.1.UPF
     MD5 check sum: 4d0aa7498161b95d6b336a838fdb998f
     Pseudo is Projector augmented-wave + core cor, Zval =  6.0
     Generated using "atomic" code by A. Dal Corso  v.5.0.2 svn rev. 9415
     Shape of augmentation charge: PSQ
     Using radial grid of 1151 points,  4 beta functions with: 
                l(1) =   0
                l(2) =   0
                l(3) =   1
                l(4) =   1
     Q(r) pseudized with 0 coefficients 


     atomic species   valence    mass     pseudopotential
        Fe1           16.00    55.85000     Fe( 1.00)
        Fe2           16.00    55.85000     Fe( 1.00)
        S              6.00    32.07000      S( 1.00)

     Starting magnetic structure 
     atomic species   magnetization
        Fe1          0.600
        Fe2         -0.600
        S            0.000


     Simplified LDA+U calculation (l_max = 2) with parameters (eV):
     atomic species    L          U    alpha       J0     beta
        Fe1            2     0.0000   0.0000   0.0000   0.0000
        Fe2            2     0.0000   0.0000   0.0000   0.0000



      4 Sym. Ops., with inversion, found


                                    s                        frac. trans.

      isym =  1     identity                                     

 cryst.   s( 1) = (     1          0          0      )
                  (     0          1          0      )
                  (     0          0          1      )

 cart.    s( 1) = (  1.0000000  0.0000000  0.0000000 )
                  (  0.0000000  1.0000000  0.0000000 )
                  (  0.0000000  0.0000000  1.0000000 )


      isym =  2     180 deg rotation - cart. axis [0,0,1]        

 cryst.   s( 2) = (    -1          0          0      )
                  (     0         -1          0      )
                  (     0          0          1      )

 cart.    s( 2) = ( -1.0000000  0.0000000  0.0000000 )
                  (  0.0000000 -1.0000000  0.0000000 )
                  (  0.0000000  0.0000000  1.0000000 )


      isym =  3     inversion                                    

 cryst.   s( 3) = (    -1          0          0      )
                  (     0         -1          0      )
                  (     0          0         -1      )

 cart.    s( 3) = ( -1.0000000  0.0000000  0.0000000 )
                  (  0.0000000 -1.0000000  0.0000000 )
                  (  0.0000000  0.0000000 -1.0000000 )


      isym =  4     inv. 180 deg rotation - cart. axis [0,0,1]   

 cryst.   s( 4) = (     1          0          0      )
                  (     0          1          0      )
                  (     0          0         -1      )

 cart.    s( 4) = (  1.0000000  0.0000000  0.0000000 )
                  (  0.0000000  1.0000000  0.0000000 )
                  (  0.0000000  0.0000000 -1.0000000 )


   Cartesian axes

     site n.     atom                  positions (alat units)
         1           Fe1 tau(   1) = (   0.0000000   0.0000000   0.0000000  )
         2           Fe2 tau(   2) = (   0.5000000   0.6095914   0.3820399  )
         3           S   tau(   3) = (   0.2054109   0.4579428   0.0000000  )
         4           S   tau(   4) = (   0.7945891   0.7612400   0.0000000  )
         5           S   tau(   5) = (   0.2945889   1.0675344   0.3820399  )
         6           S   tau(   6) = (   0.7054111   0.1516484   0.3820399  )

   Crystallographic axes

     site n.     atom                  positions (cryst. coord.)
         1           Fe1 tau(   1) = (  0.0000000  0.0000000  0.0000000  )
         2           Fe2 tau(   2) = (  0.5000000  0.5000000  0.5000000  )
         3           S   tau(   3) = (  0.2054109  0.3756146  0.0000000  )
         4           S   tau(   4) = (  0.7945891  0.6243854  0.0000000  )
         5           S   tau(   5) = (  0.2945889  0.8756147  0.5000000  )
         6           S   tau(   6) = (  0.7054111  0.1243853  0.5000000  )

     number of k points=   156  Marzari-Vanderbilt smearing, width (Ry)=  0.0100
                       cart. coord. in units 2pi/alat
        k(    1) = (   0.0000000   0.0000000   0.0000000), wk =   0.0020833
        k(    2) = (   0.0000000   0.0000000   0.1308764), wk =   0.0041667
        k(    3) = (   0.0000000   0.0000000   0.2617527), wk =   0.0041667
        k(    4) = (   0.0000000   0.0000000   0.3926291), wk =   0.0041667
        k(    5) = (   0.0000000   0.0000000   0.5235055), wk =   0.0041667
        k(    6) = (   0.0000000   0.0000000  -0.6543819), wk =   0.0020833
        k(    7) = (   0.0000000   0.1367036   0.0000000), wk =   0.0041667
        k(    8) = (   0.0000000   0.1367036   0.1308764), wk =   0.0083333
        k(    9) = (   0.0000000   0.1367036   0.2617527), wk =   0.0083333
        k(   10) = (   0.0000000   0.1367036   0.3926291), wk =   0.0083333
        k(   11) = (   0.0000000   0.1367036   0.5235055), wk =   0.0083333
        k(   12) = (   0.0000000   0.1367036  -0.6543819), wk =   0.0041667
        k(   13) = (   0.0000000   0.2734072   0.0000000), wk =   0.0041667
        k(   14) = (   0.0000000   0.2734072   0.1308764), wk =   0.0083333
        k(   15) = (   0.0000000   0.2734072   0.2617527), wk =   0.0083333
        k(   16) = (   0.0000000   0.2734072   0.3926291), wk =   0.0083333
        k(   17) = (   0.0000000   0.2734072   0.5235055), wk =   0.0083333
        k(   18) = (   0.0000000   0.2734072  -0.6543819), wk =   0.0041667
        k(   19) = (   0.0000000  -0.4101108   0.0000000), wk =   0.0020833
        k(   20) = (   0.0000000  -0.4101108   0.1308764), wk =   0.0041667
        k(   21) = (   0.0000000  -0.4101108   0.2617527), wk =   0.0041667
        k(   22) = (   0.0000000  -0.4101108   0.3926291), wk =   0.0041667
        k(   23) = (   0.0000000  -0.4101108   0.5235055), wk =   0.0041667
        k(   24) = (   0.0000000  -0.4101108  -0.6543819), wk =   0.0020833
        k(   25) = (   0.1250000   0.0000000   0.0000000), wk =   0.0041667
        k(   26) = (   0.1250000   0.0000000   0.1308764), wk =   0.0083333
        k(   27) = (   0.1250000   0.0000000   0.2617527), wk =   0.0083333
        k(   28) = (   0.1250000   0.0000000   0.3926291), wk =   0.0083333
        k(   29) = (   0.1250000   0.0000000   0.5235055), wk =   0.0083333
        k(   30) = (   0.1250000   0.0000000  -0.6543819), wk =   0.0041667
        k(   31) = (   0.1250000   0.1367036   0.0000000), wk =   0.0041667
        k(   32) = (   0.1250000   0.1367036   0.1308764), wk =   0.0083333
        k(   33) = (   0.1250000   0.1367036   0.2617527), wk =   0.0083333
        k(   34) = (   0.1250000   0.1367036   0.3926291), wk =   0.0083333
        k(   35) = (   0.1250000   0.1367036   0.5235055), wk =   0.0083333
        k(   36) = (   0.1250000   0.1367036  -0.6543819), wk =   0.0041667
        k(   37) = (   0.1250000   0.2734072   0.0000000), wk =   0.0041667
        k(   38) = (   0.1250000   0.2734072   0.1308764), wk =   0.0083333
        k(   39) = (   0.1250000   0.2734072   0.2617527), wk =   0.0083333
        k(   40) = (   0.1250000   0.2734072   0.3926291), wk =   0.0083333
        k(   41) = (   0.1250000   0.2734072   0.5235055), wk =   0.0083333
        k(   42) = (   0.1250000   0.2734072  -0.6543819), wk =   0.0041667
        k(   43) = (   0.1250000  -0.4101108   0.0000000), wk =   0.0041667
        k(   44) = (   0.1250000  -0.4101108   0.1308764), wk =   0.0083333
        k(   45) = (   0.1250000  -0.4101108   0.2617527), wk =   0.0083333
        k(   46) = (   0.1250000  -0.4101108   0.3926291), wk =   0.0083333
        k(   47) = (   0.1250000  -0.4101108   0.5235055), wk =   0.0083333
        k(   48) = (   0.1250000  -0.4101108  -0.6543819), wk =   0.0041667
        k(   49) = (   0.2500000   0.0000000   0.0000000), wk =   0.0041667
        k(   50) = (   0.2500000   0.0000000   0.1308764), wk =   0.0083333
        k(   51) = (   0.2500000   0.0000000   0.2617527), wk =   0.0083333
        k(   52) = (   0.2500000   0.0000000   0.3926291), wk =   0.0083333
        k(   53) = (   0.2500000   0.0000000   0.5235055), wk =   0.0083333
        k(   54) = (   0.2500000   0.0000000  -0.6543819), wk =   0.0041667
        k(   55) = (   0.2500000   0.1367036   0.0000000), wk =   0.0041667
        k(   56) = (   0.2500000   0.1367036   0.1308764), wk =   0.0083333
        k(   57) = (   0.2500000   0.1367036   0.2617527), wk =   0.0083333
        k(   58) = (   0.2500000   0.1367036   0.3926291), wk =   0.0083333
        k(   59) = (   0.2500000   0.1367036   0.5235055), wk =   0.0083333
        k(   60) = (   0.2500000   0.1367036  -0.6543819), wk =   0.0041667
        k(   61) = (   0.2500000   0.2734072   0.0000000), wk =   0.0041667
        k(   62) = (   0.2500000   0.2734072   0.1308764), wk =   0.0083333
        k(   63) = (   0.2500000   0.2734072   0.2617527), wk =   0.0083333
        k(   64) = (   0.2500000   0.2734072   0.3926291), wk =   0.0083333
        k(   65) = (   0.2500000   0.2734072   0.5235055), wk =   0.0083333
        k(   66) = (   0.2500000   0.2734072  -0.6543819), wk =   0.0041667
        k(   67) = (   0.2500000  -0.4101108   0.0000000), wk =   0.0041667
        k(   68) = (   0.2500000  -0.4101108   0.1308764), wk =   0.0083333
        k(   69) = (   0.2500000  -0.4101108   0.2617527), wk =   0.0083333
        k(   70) = (   0.2500000  -0.4101108   0.3926291), wk =   0.0083333
        k(   71) = (   0.2500000  -0.4101108   0.5235055), wk =   0.0083333
        k(   72) = (   0.2500000  -0.4101108  -0.6543819), wk =   0.0041667
        k(   73) = (   0.3750000   0.0000000   0.0000000), wk =   0.0041667
        k(   74) = (   0.3750000   0.0000000   0.1308764), wk =   0.0083333
        k(   75) = (   0.3750000   0.0000000   0.2617527), wk =   0.0083333
        k(   76) = (   0.3750000   0.0000000   0.3926291), wk =   0.0083333
        k(   77) = (   0.3750000   0.0000000   0.5235055), wk =   0.0083333
        k(   78) = (   0.3750000   0.0000000  -0.6543819), wk =   0.0041667
        k(   79) = (   0.3750000   0.1367036   0.0000000), wk =   0.0041667
        k(   80) = (   0.3750000   0.1367036   0.1308764), wk =   0.0083333
        k(   81) = (   0.3750000   0.1367036   0.2617527), wk =   0.0083333
        k(   82) = (   0.3750000   0.1367036   0.3926291), wk =   0.0083333
        k(   83) = (   0.3750000   0.1367036   0.5235055), wk =   0.0083333
        k(   84) = (   0.3750000   0.1367036  -0.6543819), wk =   0.0041667
        k(   85) = (   0.3750000   0.2734072   0.0000000), wk =   0.0041667
        k(   86) = (   0.3750000   0.2734072   0.1308764), wk =   0.0083333
        k(   87) = (   0.3750000   0.2734072   0.2617527), wk =   0.0083333
        k(   88) = (   0.3750000   0.2734072   0.3926291), wk =   0.0083333
        k(   89) = (   0.3750000   0.2734072   0.5235055), wk =   0.0083333
        k(   90) = (   0.3750000   0.2734072  -0.6543819), wk =   0.0041667
        k(   91) = (   0.3750000  -0.4101108   0.0000000), wk =   0.0041667
        k(   92) = (   0.3750000  -0.4101108   0.1308764), wk =   0.0083333
        k(   93) = (   0.3750000  -0.4101108   0.2617527), wk =   0.0083333
        k(   94) = (   0.3750000  -0.4101108   0.3926291), wk =   0.0083333
        k(   95) = (   0.3750000  -0.4101108   0.5235055), wk =   0.0083333
        k(   96) = (   0.3750000  -0.4101108  -0.6543819), wk =   0.0041667
        k(   97) = (  -0.5000000   0.0000000   0.0000000), wk =   0.0020833
        k(   98) = (  -0.5000000   0.0000000   0.1308764), wk =   0.0041667
        k(   99) = (  -0.5000000   0.0000000   0.2617527), wk =   0.0041667
        k(  100) = (  -0.5000000   0.0000000   0.3926291), wk =   0.0041667
        k(  101) = (  -0.5000000   0.0000000   0.5235055), wk =   0.0041667
        k(  102) = (  -0.5000000   0.0000000  -0.6543819), wk =   0.0020833
        k(  103) = (  -0.5000000   0.1367036   0.0000000), wk =   0.0041667
        k(  104) = (  -0.5000000   0.1367036   0.1308764), wk =   0.0083333
        k(  105) = (  -0.5000000   0.1367036   0.2617527), wk =   0.0083333
        k(  106) = (  -0.5000000   0.1367036   0.3926291), wk =   0.0083333
        k(  107) = (  -0.5000000   0.1367036   0.5235055), wk =   0.0083333
        k(  108) = (  -0.5000000   0.1367036  -0.6543819), wk =   0.0041667
        k(  109) = (  -0.5000000   0.2734072   0.0000000), wk =   0.0041667
        k(  110) = (  -0.5000000   0.2734072   0.1308764), wk =   0.0083333
        k(  111) = (  -0.5000000   0.2734072   0.2617527), wk =   0.0083333
        k(  112) = (  -0.5000000   0.2734072   0.3926291), wk =   0.0083333
        k(  113) = (  -0.5000000   0.2734072   0.5235055), wk =   0.0083333
        k(  114) = (  -0.5000000   0.2734072  -0.6543819), wk =   0.0041667
        k(  115) = (  -0.5000000  -0.4101108   0.0000000), wk =   0.0020833
        k(  116) = (  -0.5000000  -0.4101108   0.1308764), wk =   0.0041667
        k(  117) = (  -0.5000000  -0.4101108   0.2617527), wk =   0.0041667
        k(  118) = (  -0.5000000  -0.4101108   0.3926291), wk =   0.0041667
        k(  119) = (  -0.5000000  -0.4101108   0.5235055), wk =   0.0041667
        k(  120) = (  -0.5000000  -0.4101108  -0.6543819), wk =   0.0020833
        k(  121) = (  -0.1250000   0.1367036   0.0000000), wk =   0.0041667
        k(  122) = (  -0.1250000   0.1367036  -0.1308764), wk =   0.0083333
        k(  123) = (  -0.1250000   0.1367036  -0.2617527), wk =   0.0083333
        k(  124) = (  -0.1250000   0.1367036  -0.3926291), wk =   0.0083333
        k(  125) = (  -0.1250000   0.1367036  -0.5235055), wk =   0.0083333
        k(  126) = (  -0.1250000   0.1367036   0.6543819), wk =   0.0041667
        k(  127) = (  -0.1250000   0.2734072   0.0000000), wk =   0.0041667
        k(  128) = (  -0.1250000   0.2734072  -0.1308764), wk =   0.0083333
        k(  129) = (  -0.1250000   0.2734072  -0.2617527), wk =   0.0083333
        k(  130) = (  -0.1250000   0.2734072  -0.3926291), wk =   0.0083333
        k(  131) = (  -0.1250000   0.2734072  -0.5235055), wk =   0.0083333
        k(  132) = (  -0.1250000   0.2734072   0.6543819), wk =   0.0041667
        k(  133) = (  -0.2500000   0.1367036   0.0000000), wk =   0.0041667
        k(  134) = (  -0.2500000   0.1367036  -0.1308764), wk =   0.0083333
        k(  135) = (  -0.2500000   0.1367036  -0.2617527), wk =   0.0083333
        k(  136) = (  -0.2500000   0.1367036  -0.3926291), wk =   0.0083333
        k(  137) = (  -0.2500000   0.1367036  -0.5235055), wk =   0.0083333
        k(  138) = (  -0.2500000   0.1367036   0.6543819), wk =   0.0041667
        k(  139) = (  -0.2500000   0.2734072   0.0000000), wk =   0.0041667
        k(  140) = (  -0.2500000   0.2734072  -0.1308764), wk =   0.0083333
        k(  141) = (  -0.2500000   0.2734072  -0.2617527), wk =   0.0083333
        k(  142) = (  -0.2500000   0.2734072  -0.3926291), wk =   0.0083333
        k(  143) = (  -0.2500000   0.2734072  -0.5235055), wk =   0.0083333
        k(  144) = (  -0.2500000   0.2734072   0.6543819), wk =   0.0041667
        k(  145) = (  -0.3750000   0.1367036   0.0000000), wk =   0.0041667
        k(  146) = (  -0.3750000   0.1367036  -0.1308764), wk =   0.0083333
        k(  147) = (  -0.3750000   0.1367036  -0.2617527), wk =   0.0083333
        k(  148) = (  -0.3750000   0.1367036  -0.3926291), wk =   0.0083333
        k(  149) = (  -0.3750000   0.1367036  -0.5235055), wk =   0.0083333
        k(  150) = (  -0.3750000   0.1367036   0.6543819), wk =   0.0041667
        k(  151) = (  -0.3750000   0.2734072   0.0000000), wk =   0.0041667
        k(  152) = (  -0.3750000   0.2734072  -0.1308764), wk =   0.0083333
        k(  153) = (  -0.3750000   0.2734072  -0.2617527), wk =   0.0083333
        k(  154) = (  -0.3750000   0.2734072  -0.3926291), wk =   0.0083333
        k(  155) = (  -0.3750000   0.2734072  -0.5235055), wk =   0.0083333
        k(  156) = (  -0.3750000   0.2734072   0.6543819), wk =   0.0041667

                       cryst. coord.
        k(    1) = (   0.0000000   0.0000000   0.0000000), wk =   0.0020833
        k(    2) = (   0.0000000   0.0000000   0.1000000), wk =   0.0041667
        k(    3) = (   0.0000000   0.0000000   0.2000000), wk =   0.0041667
        k(    4) = (   0.0000000   0.0000000   0.3000000), wk =   0.0041667
        k(    5) = (   0.0000000   0.0000000   0.4000000), wk =   0.0041667
        k(    6) = (   0.0000000   0.0000000  -0.5000000), wk =   0.0020833
        k(    7) = (   0.0000000   0.1666667   0.0000000), wk =   0.0041667
        k(    8) = (   0.0000000   0.1666667   0.1000000), wk =   0.0083333
        k(    9) = (   0.0000000   0.1666667   0.2000000), wk =   0.0083333
        k(   10) = (   0.0000000   0.1666667   0.3000000), wk =   0.0083333
        k(   11) = (   0.0000000   0.1666667   0.4000000), wk =   0.0083333
        k(   12) = (   0.0000000   0.1666667  -0.5000000), wk =   0.0041667
        k(   13) = (   0.0000000   0.3333333   0.0000000), wk =   0.0041667
        k(   14) = (   0.0000000   0.3333333   0.1000000), wk =   0.0083333
        k(   15) = (   0.0000000   0.3333333   0.2000000), wk =   0.0083333
        k(   16) = (   0.0000000   0.3333333   0.3000000), wk =   0.0083333
        k(   17) = (   0.0000000   0.3333333   0.4000000), wk =   0.0083333
        k(   18) = (   0.0000000   0.3333333  -0.5000000), wk =   0.0041667
        k(   19) = (   0.0000000  -0.5000000   0.0000000), wk =   0.0020833
        k(   20) = (   0.0000000  -0.5000000   0.1000000), wk =   0.0041667
        k(   21) = (   0.0000000  -0.5000000   0.2000000), wk =   0.0041667
        k(   22) = (   0.0000000  -0.5000000   0.3000000), wk =   0.0041667
        k(   23) = (   0.0000000  -0.5000000   0.4000000), wk =   0.0041667
        k(   24) = (   0.0000000  -0.5000000  -0.5000000), wk =   0.0020833
        k(   25) = (   0.1250000   0.0000000   0.0000000), wk =   0.0041667
        k(   26) = (   0.1250000   0.0000000   0.1000000), wk =   0.0083333
        k(   27) = (   0.1250000   0.0000000   0.2000000), wk =   0.0083333
        k(   28) = (   0.1250000   0.0000000   0.3000000), wk =   0.0083333
        k(   29) = (   0.1250000   0.0000000   0.4000000), wk =   0.0083333
        k(   30) = (   0.1250000   0.0000000  -0.5000000), wk =   0.0041667
        k(   31) = (   0.1250000   0.1666667   0.0000000), wk =   0.0041667
        k(   32) = (   0.1250000   0.1666667   0.1000000), wk =   0.0083333
        k(   33) = (   0.1250000   0.1666667   0.2000000), wk =   0.0083333
        k(   34) = (   0.1250000   0.1666667   0.3000000), wk =   0.0083333
        k(   35) = (   0.1250000   0.1666667   0.4000000), wk =   0.0083333
        k(   36) = (   0.1250000   0.1666667  -0.5000000), wk =   0.0041667
        k(   37) = (   0.1250000   0.3333333   0.0000000), wk =   0.0041667
        k(   38) = (   0.1250000   0.3333333   0.1000000), wk =   0.0083333
        k(   39) = (   0.1250000   0.3333333   0.2000000), wk =   0.0083333
        k(   40) = (   0.1250000   0.3333333   0.3000000), wk =   0.0083333
        k(   41) = (   0.1250000   0.3333333   0.4000000), wk =   0.0083333
        k(   42) = (   0.1250000   0.3333333  -0.5000000), wk =   0.0041667
        k(   43) = (   0.1250000  -0.5000000   0.0000000), wk =   0.0041667
        k(   44) = (   0.1250000  -0.5000000   0.1000000), wk =   0.0083333
        k(   45) = (   0.1250000  -0.5000000   0.2000000), wk =   0.0083333
        k(   46) = (   0.1250000  -0.5000000   0.3000000), wk =   0.0083333
        k(   47) = (   0.1250000  -0.5000000   0.4000000), wk =   0.0083333
        k(   48) = (   0.1250000  -0.5000000  -0.5000000), wk =   0.0041667
        k(   49) = (   0.2500000   0.0000000   0.0000000), wk =   0.0041667
        k(   50) = (   0.2500000   0.0000000   0.1000000), wk =   0.0083333
        k(   51) = (   0.2500000   0.0000000   0.2000000), wk =   0.0083333
        k(   52) = (   0.2500000   0.0000000   0.3000000), wk =   0.0083333
        k(   53) = (   0.2500000   0.0000000   0.4000000), wk =   0.0083333
        k(   54) = (   0.2500000   0.0000000  -0.5000000), wk =   0.0041667
        k(   55) = (   0.2500000   0.1666667   0.0000000), wk =   0.0041667
        k(   56) = (   0.2500000   0.1666667   0.1000000), wk =   0.0083333
        k(   57) = (   0.2500000   0.1666667   0.2000000), wk =   0.0083333
        k(   58) = (   0.2500000   0.1666667   0.3000000), wk =   0.0083333
        k(   59) = (   0.2500000   0.1666667   0.4000000), wk =   0.0083333
        k(   60) = (   0.2500000   0.1666667  -0.5000000), wk =   0.0041667
        k(   61) = (   0.2500000   0.3333333   0.0000000), wk =   0.0041667
        k(   62) = (   0.2500000   0.3333333   0.1000000), wk =   0.0083333
        k(   63) = (   0.2500000   0.3333333   0.2000000), wk =   0.0083333
        k(   64) = (   0.2500000   0.3333333   0.3000000), wk =   0.0083333
        k(   65) = (   0.2500000   0.3333333   0.4000000), wk =   0.0083333
        k(   66) = (   0.2500000   0.3333333  -0.5000000), wk =   0.0041667
        k(   67) = (   0.2500000  -0.5000000   0.0000000), wk =   0.0041667
        k(   68) = (   0.2500000  -0.5000000   0.1000000), wk =   0.0083333
        k(   69) = (   0.2500000  -0.5000000   0.2000000), wk =   0.0083333
        k(   70) = (   0.2500000  -0.5000000   0.3000000), wk =   0.0083333
        k(   71) = (   0.2500000  -0.5000000   0.4000000), wk =   0.0083333
        k(   72) = (   0.2500000  -0.5000000  -0.5000000), wk =   0.0041667
        k(   73) = (   0.3750000   0.0000000   0.0000000), wk =   0.0041667
        k(   74) = (   0.3750000   0.0000000   0.1000000), wk =   0.0083333
        k(   75) = (   0.3750000   0.0000000   0.2000000), wk =   0.0083333
        k(   76) = (   0.3750000   0.0000000   0.3000000), wk =   0.0083333
        k(   77) = (   0.3750000   0.0000000   0.4000000), wk =   0.0083333
        k(   78) = (   0.3750000   0.0000000  -0.5000000), wk =   0.0041667
        k(   79) = (   0.3750000   0.1666667   0.0000000), wk =   0.0041667
        k(   80) = (   0.3750000   0.1666667   0.1000000), wk =   0.0083333
        k(   81) = (   0.3750000   0.1666667   0.2000000), wk =   0.0083333
        k(   82) = (   0.3750000   0.1666667   0.3000000), wk =   0.0083333
        k(   83) = (   0.3750000   0.1666667   0.4000000), wk =   0.0083333
        k(   84) = (   0.3750000   0.1666667  -0.5000000), wk =   0.0041667
        k(   85) = (   0.3750000   0.3333333   0.0000000), wk =   0.0041667
        k(   86) = (   0.3750000   0.3333333   0.1000000), wk =   0.0083333
        k(   87) = (   0.3750000   0.3333333   0.2000000), wk =   0.0083333
        k(   88) = (   0.3750000   0.3333333   0.3000000), wk =   0.0083333
        k(   89) = (   0.3750000   0.3333333   0.4000000), wk =   0.0083333
        k(   90) = (   0.3750000   0.3333333  -0.5000000), wk =   0.0041667
        k(   91) = (   0.3750000  -0.5000000   0.0000000), wk =   0.0041667
        k(   92) = (   0.3750000  -0.5000000   0.1000000), wk =   0.0083333
        k(   93) = (   0.3750000  -0.5000000   0.2000000), wk =   0.0083333
        k(   94) = (   0.3750000  -0.5000000   0.3000000), wk =   0.0083333
        k(   95) = (   0.3750000  -0.5000000   0.4000000), wk =   0.0083333
        k(   96) = (   0.3750000  -0.5000000  -0.5000000), wk =   0.0041667
        k(   97) = (  -0.5000000   0.0000000   0.0000000), wk =   0.0020833
        k(   98) = (  -0.5000000   0.0000000   0.1000000), wk =   0.0041667
        k(   99) = (  -0.5000000   0.0000000   0.2000000), wk =   0.0041667
        k(  100) = (  -0.5000000   0.0000000   0.3000000), wk =   0.0041667
        k(  101) = (  -0.5000000   0.0000000   0.4000000), wk =   0.0041667
        k(  102) = (  -0.5000000   0.0000000  -0.5000000), wk =   0.0020833
        k(  103) = (  -0.5000000   0.1666667   0.0000000), wk =   0.0041667
        k(  104) = (  -0.5000000   0.1666667   0.1000000), wk =   0.0083333
        k(  105) = (  -0.5000000   0.1666667   0.2000000), wk =   0.0083333
        k(  106) = (  -0.5000000   0.1666667   0.3000000), wk =   0.0083333
        k(  107) = (  -0.5000000   0.1666667   0.4000000), wk =   0.0083333
        k(  108) = (  -0.5000000   0.1666667  -0.5000000), wk =   0.0041667
        k(  109) = (  -0.5000000   0.3333333   0.0000000), wk =   0.0041667
        k(  110) = (  -0.5000000   0.3333333   0.1000000), wk =   0.0083333
        k(  111) = (  -0.5000000   0.3333333   0.2000000), wk =   0.0083333
        k(  112) = (  -0.5000000   0.3333333   0.3000000), wk =   0.0083333
        k(  113) = (  -0.5000000   0.3333333   0.4000000), wk =   0.0083333
        k(  114) = (  -0.5000000   0.3333333  -0.5000000), wk =   0.0041667
        k(  115) = (  -0.5000000  -0.5000000   0.0000000), wk =   0.0020833
        k(  116) = (  -0.5000000  -0.5000000   0.1000000), wk =   0.0041667
        k(  117) = (  -0.5000000  -0.5000000   0.2000000), wk =   0.0041667
        k(  118) = (  -0.5000000  -0.5000000   0.3000000), wk =   0.0041667
        k(  119) = (  -0.5000000  -0.5000000   0.4000000), wk =   0.0041667
        k(  120) = (  -0.5000000  -0.5000000  -0.5000000), wk =   0.0020833
        k(  121) = (  -0.1250000   0.1666667   0.0000000), wk =   0.0041667
        k(  122) = (  -0.1250000   0.1666667  -0.1000000), wk =   0.0083333
        k(  123) = (  -0.1250000   0.1666667  -0.2000000), wk =   0.0083333
        k(  124) = (  -0.1250000   0.1666667  -0.3000000), wk =   0.0083333
        k(  125) = (  -0.1250000   0.1666667  -0.4000000), wk =   0.0083333
        k(  126) = (  -0.1250000   0.1666667   0.5000000), wk =   0.0041667
        k(  127) = (  -0.1250000   0.3333333   0.0000000), wk =   0.0041667
        k(  128) = (  -0.1250000   0.3333333  -0.1000000), wk =   0.0083333
        k(  129) = (  -0.1250000   0.3333333  -0.2000000), wk =   0.0083333
        k(  130) = (  -0.1250000   0.3333333  -0.3000000), wk =   0.0083333
        k(  131) = (  -0.1250000   0.3333333  -0.4000000), wk =   0.0083333
        k(  132) = (  -0.1250000   0.3333333   0.5000000), wk =   0.0041667
        k(  133) = (  -0.2500000   0.1666667   0.0000000), wk =   0.0041667
        k(  134) = (  -0.2500000   0.1666667  -0.1000000), wk =   0.0083333
        k(  135) = (  -0.2500000   0.1666667  -0.2000000), wk =   0.0083333
        k(  136) = (  -0.2500000   0.1666667  -0.3000000), wk =   0.0083333
        k(  137) = (  -0.2500000   0.1666667  -0.4000000), wk =   0.0083333
        k(  138) = (  -0.2500000   0.1666667   0.5000000), wk =   0.0041667
        k(  139) = (  -0.2500000   0.3333333   0.0000000), wk =   0.0041667
        k(  140) = (  -0.2500000   0.3333333  -0.1000000), wk =   0.0083333
        k(  141) = (  -0.2500000   0.3333333  -0.2000000), wk =   0.0083333
        k(  142) = (  -0.2500000   0.3333333  -0.3000000), wk =   0.0083333
        k(  143) = (  -0.2500000   0.3333333  -0.4000000), wk =   0.0083333
        k(  144) = (  -0.2500000   0.3333333   0.5000000), wk =   0.0041667
        k(  145) = (  -0.3750000   0.1666667   0.0000000), wk =   0.0041667
        k(  146) = (  -0.3750000   0.1666667  -0.1000000), wk =   0.0083333
        k(  147) = (  -0.3750000   0.1666667  -0.2000000), wk =   0.0083333
        k(  148) = (  -0.3750000   0.1666667  -0.3000000), wk =   0.0083333
        k(  149) = (  -0.3750000   0.1666667  -0.4000000), wk =   0.0083333
        k(  150) = (  -0.3750000   0.1666667   0.5000000), wk =   0.0041667
        k(  151) = (  -0.3750000   0.3333333   0.0000000), wk =   0.0041667
        k(  152) = (  -0.3750000   0.3333333  -0.1000000), wk =   0.0083333
        k(  153) = (  -0.3750000   0.3333333  -0.2000000), wk =   0.0083333
        k(  154) = (  -0.3750000   0.3333333  -0.3000000), wk =   0.0083333
        k(  155) = (  -0.3750000   0.3333333  -0.4000000), wk =   0.0083333
        k(  156) = (  -0.3750000   0.3333333   0.5000000), wk =   0.0041667

     Dense  grid:    63421 G-vectors     FFT dimensions: (  54,  64,  40)

     Largest allocated arrays     est. size (Mb)     dimensions
        Kohn-Sham Wavefunctions         0.28 Mb     (     506,   36)
        Atomic Hubbard wavefuncts       0.08 Mb     (     506,   10)
        NL pseudopotentials             0.53 Mb     (     506,   68)
        Each V/rho on FFT grid          0.32 Mb     (   10368,   2)
        Each G-vector array             0.03 Mb     (    3965)
        G-vector shells                 0.03 Mb     (    3965)
     Largest temporary arrays     est. size (Mb)     dimensions
        Auxiliary wavefunctions         1.11 Mb     (     506,  144)
        Each subspace H/S matrix        0.32 Mb     (     144,  144)
        Each <psi_i|beta_j> matrix      0.04 Mb     (      68,   36)
        Arrays for rho mixing           1.27 Mb     (   10368,    8)

     Check: negative/imaginary core charge=   -0.000051    0.000000

     Initial potential from superposition of free atoms

     starting charge   55.99899, renormalised to   56.00000
 --- in v_hubbard ---
Hubbard energy    0.0000
 -------
     Number of +U iterations with fixed ns =  0
     Starting occupations:
 --- enter write_ns ---
 LDA+U parameters:
U( 1)     =  0.00000000
alpha( 1) =  0.00000000
U( 2)     =  0.00000000
alpha( 2) =  0.00000000
atom    1   Tr[ns(na)] (up, down, total) =   5.00000  1.00000  6.00000
   spin  1
    eigenvalues: 
  1.000  1.000  1.000  1.000  1.000
    eigenvectors:
  1.000  0.000  0.000  0.000  0.000
  0.000  1.000  0.000  0.000  0.000
  0.000  0.000  1.000  0.000  0.000
  0.000  0.000  0.000  1.000  0.000
  0.000  0.000  0.000  0.000  1.000
    occupations:
  1.000  0.000  0.000  0.000  0.000
  0.000  1.000  0.000  0.000  0.000
  0.000  0.000  1.000  0.000  0.000
  0.000  0.000  0.000  1.000  0.000
  0.000  0.000  0.000  0.000  1.000
   spin  2
    eigenvalues: 
  0.200  0.200  0.200  0.200  0.200
    eigenvectors:
  1.000  0.000  0.000  0.000  0.000
  0.000  1.000  0.000  0.000  0.000
  0.000  0.000  1.000  0.000  0.000
  0.000  0.000  0.000  1.000  0.000
  0.000  0.000  0.000  0.000  1.000
    occupations:
  0.200  0.000  0.000  0.000  0.000
  0.000  0.200  0.000  0.000  0.000
  0.000  0.000  0.200  0.000  0.000
  0.000  0.000  0.000  0.200  0.000
  0.000  0.000  0.000  0.000  0.200
atomic mag. moment =     4.000000
atom    2   Tr[ns(na)] (up, down, total) =   1.00000  5.00000  6.00000
   spin  1
    eigenvalues: 
  0.200  0.200  0.200  0.200  0.200
    eigenvectors:
  1.000  0.000  0.000  0.000  0.000
  0.000  1.000  0.000  0.000  0.000
  0.000  0.000  1.000  0.000  0.000
  0.000  0.000  0.000  1.000  0.000
  0.000  0.000  0.000  0.000  1.000
    occupations:
  0.200  0.000  0.000  0.000  0.000
  0.000  0.200  0.000  0.000  0.000
  0.000  0.000  0.200  0.000  0.000
  0.000  0.000  0.000  0.200  0.000
  0.000  0.000  0.000  0.000  0.200
   spin  2
    eigenvalues: 
  1.000  1.000  1.000  1.000  1.000
    eigenvectors:
  1.000  0.000  0.000  0.000  0.000
  0.000  1.000  0.000  0.000  0.000
  0.000  0.000  1.000  0.000  0.000
  0.000  0.000  0.000  1.000  0.000
  0.000  0.000  0.000  0.000  1.000
    occupations:
  1.000  0.000  0.000  0.000  0.000
  0.000  1.000  0.000  0.000  0.000
  0.000  0.000  1.000  0.000  0.000
  0.000  0.000  0.000  1.000  0.000
  0.000  0.000  0.000  0.000  1.000
atomic mag. moment =    -4.000000
N of occupied +U levels =   12.000000
 --- exit write_ns ---
 Atomic wfc used for LDA+U Projector are NOT orthogonalized
     Starting wfc are   42 randomized atomic wfcs
     Checking if some PAW data can be deallocated... 
       node    0, deallocated PAW data for type:  2
       node    0, deallocated PAW data for type:  3
       node    1, deallocated PAW data for type:  2
       node    1, deallocated PAW data for type:  3
       node    2, deallocated PAW data for type:  2
       node    2, deallocated PAW data for type:  3
       node    3, deallocated PAW data for type:  1
       node    3, deallocated PAW data for type:  3
       node    4, deallocated PAW data for type:  1
       node    4, deallocated PAW data for type:  3
       node    5, deallocated PAW data for type:  1
       node    5, deallocated PAW data for type:  3
       node    6, deallocated PAW data for type:  1
       node    6, deallocated PAW data for type:  2
       node    7, deallocated PAW data for type:  1
       node    7, deallocated PAW data for type:  2
       node    8, deallocated PAW data for type:  1
       node    8, deallocated PAW data for type:  2
       node    9, deallocated PAW data for type:  1
       node    9, deallocated PAW data for type:  2
       node   10, deallocated PAW data for type:  1
       node   10, deallocated PAW data for type:  2
       node   11, deallocated PAW data for type:  1
       node   11, deallocated PAW data for type:  2
       node   12, deallocated PAW data for type:  1
       node   12, deallocated PAW data for type:  2
       node   13, deallocated PAW data for type:  1
       node   13, deallocated PAW data for type:  2
       node   14, deallocated PAW data for type:  1
       node   14, deallocated PAW data for type:  2
       node   15, deallocated PAW data for type:  1
       node   15, deallocated PAW data for type:  2

     total cpu time spent up to now is        9.4 secs

     per-process dynamical memory:   153.9 Mb

     Self-consistent Calculation

     iteration #  1     ecut=    90.00 Ry     beta=0.50
     Davidson diagonalization with overlap
     ethr =  1.00E-02,  avg # of iterations =  4.6
 --- enter write_ns ---
 LDA+U parameters:
U( 1)     =  0.00000000
alpha( 1) =  0.00000000
U( 2)     =  0.00000000
alpha( 2) =  0.00000000
atom    1   Tr[ns(na)] (up, down, total) =   4.94867  1.29629  6.24497
   spin  1
    eigenvalues: 
  0.981  0.984  0.993  0.994  0.996
    eigenvectors:
  0.378  0.000  0.014  0.000  0.608
  0.000  0.652  0.000  0.348  0.000
  0.000  0.348  0.000  0.652  0.000
  0.183  0.000  0.775  0.000  0.042
  0.439  0.000  0.211  0.000  0.350
    occupations:
  0.990 -0.000  0.000 -0.004  0.006
 -0.000  0.988  0.005  0.000  0.000
  0.000  0.005  0.991  0.000  0.000
 -0.004  0.000  0.000  0.991  0.003
  0.006  0.000  0.000  0.003  0.989
   spin  2
    eigenvalues: 
  0.130  0.228  0.267  0.335  0.337
    eigenvectors:
  0.637  0.000  0.021  0.000  0.342
  0.000  0.218  0.000  0.782  0.000
  0.000  0.782  0.000  0.218  0.000
  0.040  0.000  0.725  0.000  0.234
  0.323  0.000  0.254  0.000  0.424
    occupations:
  0.204 -0.000 -0.000  0.042 -0.089
 -0.000  0.312 -0.044  0.000  0.000
 -0.000 -0.044  0.251  0.000  0.000
  0.042  0.000  0.000  0.277 -0.007
 -0.089  0.000  0.000 -0.007  0.252
atomic mag. moment =     3.652380
atom    2   Tr[ns(na)] (up, down, total) =   1.29679  4.94864  6.24544
   spin  1
    eigenvalues: 
  0.130  0.228  0.267  0.336  0.337
    eigenvectors:
  0.637  0.000  0.021  0.000  0.342
  0.000  0.220  0.000  0.780  0.000
  0.000  0.780  0.000  0.220  0.000
  0.040  0.000  0.726  0.000  0.234
  0.323  0.000  0.254  0.000  0.424
    occupations:
  0.204 -0.000  0.000  0.042  0.089
 -0.000  0.312  0.045  0.000  0.000
  0.000  0.045  0.251  0.000  0.000
  0.042  0.000  0.000  0.278  0.006
  0.089  0.000  0.000  0.006  0.252
   spin  2
    eigenvalues: 
  0.981  0.984  0.993  0.994  0.996
    eigenvectors:
  0.378  0.000  0.014  0.000  0.608
  0.000  0.652  0.000  0.348  0.000
  0.000  0.348  0.000  0.652  0.000
  0.184  0.000  0.774  0.000  0.042
  0.438  0.000  0.212  0.000  0.350
    occupations:
  0.990 -0.000  0.000 -0.004 -0.006
 -0.000  0.988 -0.005  0.000  0.000
  0.000 -0.005  0.991  0.000  0.000
 -0.004  0.000  0.000  0.991 -0.003
 -0.006  0.000  0.000 -0.003  0.989
atomic mag. moment =    -3.651854
N of occupied +U levels =   12.490403
 --- exit write_ns ---

     negative rho (up, down):  2.481E-04 2.482E-04
 --- in v_hubbard ---
Hubbard energy    0.0000
 -------

     total cpu time spent up to now is       37.5 secs

     total energy              =    -922.97300623 Ry
     Harris-Foulkes estimate   =    -922.38643507 Ry
     estimated scf accuracy    <       1.89050256 Ry

     total magnetization       =    -0.00 Bohr mag/cell
     absolute magnetization    =     8.55 Bohr mag/cell

     iteration #  2     ecut=    90.00 Ry     beta=0.50
     Davidson diagonalization with overlap
     ethr =  3.38E-03,  avg # of iterations =  2.7
 --- enter write_ns ---
 LDA+U parameters:
U( 1)     =  0.00000000
alpha( 1) =  0.00000000
U( 2)     =  0.00000000
alpha( 2) =  0.00000000
atom    1   Tr[ns(na)] (up, down, total) =   4.92524  3.25165  8.17689
   spin  1
    eigenvalues: 
  0.966  0.972  0.995  0.996  0.996
    eigenvectors:
  0.297  0.000  0.000  0.003  0.699
  0.000  0.786  0.214  0.000  0.000
  0.000  0.214  0.786  0.000  0.000
  0.273  0.000  0.000  0.645  0.082
  0.429  0.000  0.000  0.352  0.219
    occupations:
  0.987 -0.000  0.000 -0.009  0.011
 -0.000  0.977  0.010  0.000  0.000
  0.000  0.010  0.990  0.000  0.000
 -0.009  0.000  0.000  0.988  0.010
  0.011  0.000  0.000  0.010  0.983
   spin  2
    eigenvalues: 
  0.576  0.577  0.639  0.689  0.770
    eigenvectors:
  0.012  0.000  0.938  0.000  0.050
  0.000  0.655  0.000  0.345  0.000
  0.000  0.345  0.000  0.655  0.000
  0.187  0.000  0.062  0.000  0.751
  0.801  0.000  0.000  0.000  0.199
    occupations:
  0.645 -0.000 -0.000 -0.022 -0.019
 -0.000  0.616  0.054  0.000  0.000
 -0.000  0.054  0.651  0.000  0.000
 -0.022  0.000  0.000  0.726  0.075
 -0.019  0.000  0.000  0.075  0.615
atomic mag. moment =     1.673593
atom    2   Tr[ns(na)] (up, down, total) =   3.24328  4.92509  8.16837
   spin  1
    eigenvalues: 
  0.575  0.577  0.635  0.688  0.769
    eigenvectors:
  0.021  0.000  0.933  0.000  0.046
  0.000  0.654  0.000  0.346  0.000
  0.000  0.346  0.000  0.654  0.000
  0.183  0.000  0.066  0.000  0.751
  0.796  0.000  0.001  0.000  0.203
    occupations:
  0.640 -0.000  0.000 -0.021  0.021
 -0.000  0.615 -0.053  0.000  0.000
  0.000 -0.053  0.649  0.000  0.000
 -0.021  0.000  0.000  0.725 -0.075
  0.021  0.000  0.000 -0.075  0.614
   spin  2
    eigenvalues: 
  0.966  0.972  0.995  0.996  0.996
    eigenvectors:
  0.297  0.000  0.000  0.003  0.699
  0.000  0.785  0.215  0.000  0.000
  0.000  0.215  0.785  0.000  0.000
  0.273  0.000  0.000  0.645  0.082
  0.429  0.000  0.000  0.352  0.219
    occupations:
  0.987 -0.000  0.000 -0.009 -0.011
 -0.000  0.977 -0.010  0.000  0.000
  0.000 -0.010  0.990  0.000  0.000
 -0.009  0.000  0.000  0.988 -0.010
 -0.011  0.000  0.000 -0.010  0.983
atomic mag. moment =    -1.681815
N of occupied +U levels =   16.345262
 --- exit write_ns ---

     negative rho (up, down):  2.126E-04 2.123E-04
 --- in v_hubbard ---
Hubbard energy    0.0000
 -------

     total cpu time spent up to now is       58.9 secs

     total energy              =    -923.03078217 Ry
     Harris-Foulkes estimate   =    -923.54690742 Ry
     estimated scf accuracy    <       4.36056986 Ry

     total magnetization       =    -0.01 Bohr mag/cell
     absolute magnetization    =     4.99 Bohr mag/cell

     iteration #  3     ecut=    90.00 Ry     beta=0.50
     Davidson diagonalization with overlap
     ethr =  3.38E-03,  avg # of iterations =  1.7
 --- enter write_ns ---
 LDA+U parameters:
U( 1)     =  0.00000000
alpha( 1) =  0.00000000
U( 2)     =  0.00000000
alpha( 2) =  0.00000000
atom    1   Tr[ns(na)] (up, down, total) =   4.87827  1.99151  6.86978
   spin  1
    eigenvalues: 
  0.952  0.962  0.986  0.987  0.992
    eigenvectors:
  0.352  0.000  0.011  0.000  0.637
  0.000  0.723  0.000  0.277  0.000
  0.000  0.277  0.000  0.723  0.000
  0.205  0.000  0.745  0.000  0.049
  0.443  0.000  0.243  0.000  0.314
    occupations:
  0.978 -0.000  0.000 -0.010  0.016
 -0.000  0.969  0.011  0.000  0.000
  0.000  0.011  0.980  0.000  0.000
 -0.010  0.000  0.000  0.979  0.009
  0.016  0.000  0.000  0.009  0.973
   spin  2
    eigenvalues: 
  0.246  0.394  0.423  0.427  0.500
    eigenvectors:
  0.665  0.000  0.000  0.327  0.008
  0.000  0.067  0.933  0.000  0.000
  0.000  0.933  0.067  0.000  0.000
  0.041  0.000  0.000  0.180  0.780
  0.294  0.000  0.000  0.494  0.212
    occupations:
  0.307 -0.000 -0.000  0.024 -0.083
 -0.000  0.421 -0.007  0.000  0.000
 -0.000 -0.007  0.396  0.000  0.000
  0.024  0.000  0.000  0.477  0.049
 -0.083  0.000  0.000  0.049  0.390
atomic mag. moment =     2.886761
atom    2   Tr[ns(na)] (up, down, total) =   2.00257  4.87962  6.88220
   spin  1
    eigenvalues: 
  0.249  0.397  0.424  0.429  0.504
    eigenvectors:
  0.666  0.000  0.000  0.326  0.008
  0.000  0.060  0.940  0.000  0.000
  0.000  0.940  0.060  0.000  0.000
  0.040  0.000  0.000  0.182  0.778
  0.294  0.000  0.000  0.492  0.214
    occupations:
  0.309 -0.000  0.000  0.023  0.083
 -0.000  0.423  0.006  0.000  0.000
  0.000  0.006  0.399  0.000  0.000
  0.023  0.000  0.000  0.480 -0.050
  0.083  0.000  0.000 -0.050  0.392
   spin  2
    eigenvalues: 
  0.953  0.962  0.986  0.987  0.992
    eigenvectors:
  0.352  0.000  0.011  0.000  0.637
  0.000  0.723  0.000  0.277  0.000
  0.000  0.277  0.000  0.723  0.000
  0.205  0.000  0.746  0.000  0.049
  0.443  0.000  0.243  0.000  0.315
    occupations:
  0.978 -0.000  0.000 -0.010 -0.016
 -0.000  0.969 -0.011  0.000  0.000
  0.000 -0.011  0.980  0.000  0.000
 -0.010  0.000  0.000  0.979 -0.009
 -0.016  0.000  0.000 -0.009  0.973
atomic mag. moment =    -2.877052
N of occupied +U levels =   13.751973
 --- exit write_ns ---

     negative rho (up, down):  3.783E-04 3.817E-04
 --- in v_hubbard ---
Hubbard energy    0.0000
 -------

     total cpu time spent up to now is       77.8 secs

     total energy              =    -923.65733621 Ry
     Harris-Foulkes estimate   =    -923.37504695 Ry
     estimated scf accuracy    <       0.51080447 Ry

     total magnetization       =     0.00 Bohr mag/cell
     absolute magnetization    =     7.02 Bohr mag/cell

     iteration #  4     ecut=    90.00 Ry     beta=0.50
     Davidson diagonalization with overlap
     ethr =  9.12E-04,  avg # of iterations =  2.0
 --- enter write_ns ---
 LDA+U parameters:
U( 1)     =  0.00000000
alpha( 1) =  0.00000000
U( 2)     =  0.00000000
alpha( 2) =  0.00000000
atom    1   Tr[ns(na)] (up, down, total) =   4.58156  3.16246  7.74402
   spin  1
    eigenvalues: 
  0.819  0.859  0.958  0.965  0.981
    eigenvectors:
  0.262  0.000  0.037  0.000  0.701
  0.000  0.787  0.000  0.213  0.000
  0.000  0.213  0.000  0.787  0.000
  0.298  0.000  0.680  0.000  0.021
  0.439  0.000  0.283  0.000  0.278
    occupations:
  0.937 -0.000  0.000 -0.042  0.057
 -0.000  0.882  0.044  0.000  0.000
  0.000  0.044  0.942  0.000  0.000
 -0.042  0.000  0.000  0.917  0.049
  0.057  0.000  0.000  0.049  0.903
   spin  2
    eigenvalues: 
  0.481  0.495  0.693  0.709  0.785
    eigenvectors:
  0.000  0.103  0.000  0.209  0.688
  0.799  0.000  0.201  0.000  0.000
  0.201  0.000  0.799  0.000  0.000
  0.000  0.251  0.000  0.438  0.312
  0.000  0.646  0.000  0.353  0.000
    occupations:
  0.739 -0.000  0.000 -0.070  0.054
 -0.000  0.523  0.085  0.000  0.000
  0.000  0.085  0.650  0.000  0.000
 -0.070  0.000  0.000  0.679  0.087
  0.054  0.000  0.000  0.087  0.571
atomic mag. moment =     1.419110
atom    2   Tr[ns(na)] (up, down, total) =   2.68780  4.50385  7.19166
   spin  1
    eigenvalues: 
  0.453  0.467  0.482  0.612  0.674
    eigenvectors:
  0.382  0.000  0.614  0.000  0.004
  0.000  0.791  0.000  0.209  0.000
  0.000  0.209  0.000  0.791  0.000
  0.125  0.000  0.121  0.000  0.754
  0.493  0.000  0.264  0.000  0.242
    occupations:
  0.472 -0.000  0.000 -0.004  0.019
 -0.000  0.497 -0.059  0.000  0.000
  0.000 -0.059  0.582  0.000  0.000
 -0.004  0.000  0.000  0.623 -0.089
  0.019  0.000  0.000 -0.089  0.514
   spin  2
    eigenvalues: 
  0.790  0.826  0.951  0.959  0.978
    eigenvectors:
  0.256  0.000  0.039  0.000  0.706
  0.000  0.794  0.000  0.206  0.000
  0.000  0.206  0.000  0.794  0.000
  0.308  0.000  0.672  0.000  0.020
  0.437  0.000  0.289  0.000  0.274
    occupations:
  0.929 -0.000 -0.000 -0.048 -0.066
 -0.000  0.853 -0.054  0.000  0.000
 -0.000 -0.054  0.932  0.000  0.000
 -0.048  0.000  0.000  0.902 -0.057
 -0.066  0.000  0.000 -0.057  0.888
atomic mag. moment =    -1.816053
N of occupied +U levels =   14.935676
 --- exit write_ns ---

     negative rho (up, down):  3.646E-04 3.427E-04
 --- in v_hubbard ---
Hubbard energy    0.0000
 -------

     total cpu time spent up to now is       97.8 secs

     total energy              =    -923.78632181 Ry
     Harris-Foulkes estimate   =    -923.79852639 Ry
     estimated scf accuracy    <       0.30486660 Ry

     total magnetization       =    -0.35 Bohr mag/cell
     absolute magnetization    =     4.30 Bohr mag/cell

     iteration #  5     ecut=    90.00 Ry     beta=0.50
     Davidson diagonalization with overlap
     ethr =  5.44E-04,  avg # of iterations =  1.8
 --- enter write_ns ---
 LDA+U parameters:
U( 1)     =  0.00000000
alpha( 1) =  0.00000000
U( 2)     =  0.00000000
alpha( 2) =  0.00000000
atom    1   Tr[ns(na)] (up, down, total) =   4.21643  2.28898  6.50541
   spin  1
    eigenvalues: 
  0.694  0.710  0.917  0.929  0.966
    eigenvectors:
  0.241  0.000  0.029  0.000  0.729
  0.000  0.813  0.000  0.187  0.000
  0.000  0.187  0.000  0.813  0.000
  0.311  0.000  0.664  0.000  0.025
  0.447  0.000  0.307  0.000  0.246
    occupations:
  0.899 -0.000  0.000 -0.068  0.094
 -0.000  0.751  0.085  0.000  0.000
  0.000  0.085  0.888  0.000  0.000
 -0.068  0.000  0.000  0.849  0.080
  0.094  0.000  0.000  0.080  0.829
   spin  2
    eigenvalues: 
  0.322  0.440  0.444  0.494  0.589
    eigenvectors:
  0.666  0.000  0.332  0.000  0.002
  0.000  0.696  0.000  0.304  0.000
  0.000  0.304  0.000  0.696  0.000
  0.059  0.000  0.165  0.000  0.776
  0.275  0.000  0.502  0.000  0.222
    occupations:
  0.363 -0.000 -0.000  0.019 -0.055
 -0.000  0.457  0.025  0.000  0.000
 -0.000  0.025  0.478  0.000  0.000
  0.019  0.000  0.000  0.549  0.076
 -0.055  0.000  0.000  0.076  0.443
atomic mag. moment =     1.927453
atom    2   Tr[ns(na)] (up, down, total) =   3.57113  4.70502  8.27615
   spin  1
    eigenvalues: 
  0.516  0.545  0.798  0.812  0.900
    eigenvectors:
  0.000  0.173  0.000  0.000  0.826
  0.820  0.000  0.180  0.000  0.000
  0.180  0.000  0.820  0.000  0.000
  0.000  0.290  0.000  0.640  0.070
  0.000  0.537  0.000  0.359  0.104
    occupations:
  0.838 -0.000 -0.000 -0.081 -0.107
 -0.000  0.567 -0.108  0.000  0.000
 -0.000 -0.108  0.747  0.000  0.000
 -0.081  0.000  0.000  0.741 -0.098
 -0.107  0.000  0.000 -0.098  0.678
   spin  2
    eigenvalues: 
  0.875  0.908  0.966  0.971  0.984
    eigenvectors:
  0.294  0.000  0.025  0.000  0.681
  0.000  0.761  0.000  0.239  0.000
  0.000  0.239  0.000  0.761  0.000
  0.262  0.000  0.707  0.000  0.031
  0.443  0.000  0.268  0.000  0.289
    occupations:
  0.952 -0.000  0.000 -0.028 -0.041
 -0.000  0.923 -0.027  0.000  0.000
  0.000 -0.027  0.956  0.000  0.000
 -0.028  0.000  0.000  0.943 -0.029
 -0.041  0.000  0.000 -0.029  0.931
atomic mag. moment =    -1.133887
N of occupied +U levels =   14.781559
 --- exit write_ns ---

     negative rho (up, down):  2.883E-04 2.752E-04
 --- in v_hubbard ---
Hubbard energy    0.0000
 -------

     total cpu time spent up to now is      116.7 secs

     total energy              =    -923.80875487 Ry
     Harris-Foulkes estimate   =    -923.88541136 Ry
     estimated scf accuracy    <       1.63214279 Ry

     total magnetization       =     0.30 Bohr mag/cell
     absolute magnetization    =     4.11 Bohr mag/cell

     iteration #  6     ecut=    90.00 Ry     beta=0.50
     Davidson diagonalization with overlap
     ethr =  5.44E-04,  avg # of iterations =  1.5
 --- enter write_ns ---
 LDA+U parameters:
U( 1)     =  0.00000000
alpha( 1) =  0.00000000
U( 2)     =  0.00000000
alpha( 2) =  0.00000000
atom    1   Tr[ns(na)] (up, down, total) =   4.20890  3.30566  7.51455
   spin  1
    eigenvalues: 
  0.681  0.710  0.920  0.932  0.966
    eigenvectors:
  0.000  0.253  0.057  0.000  0.690
  0.841  0.000  0.000  0.159  0.000
  0.159  0.000  0.000  0.841  0.000
  0.000  0.325  0.663  0.000  0.012
  0.000  0.422  0.280  0.000  0.298
    occupations:
  0.898 -0.000  0.000 -0.064  0.089
 -0.000  0.721  0.092  0.000  0.000
  0.000  0.092  0.892  0.000  0.000
 -0.064  0.000  0.000  0.852  0.075
  0.089  0.000  0.000  0.075  0.845
   spin  2
    eigenvalues: 
  0.473  0.504  0.733  0.752  0.844
    eigenvectors:
  0.000  0.141  0.000  0.011  0.848
  0.813  0.000  0.187  0.000  0.000
  0.187  0.000  0.813  0.000  0.000
  0.000  0.267  0.000  0.642  0.091
  0.000  0.592  0.000  0.347  0.061
    occupations:
  0.795 -0.000  0.000 -0.074  0.093
 -0.000  0.522  0.101  0.000  0.000
  0.000  0.101  0.684  0.000  0.000
 -0.074  0.000  0.000  0.694  0.092
  0.093  0.000  0.000  0.092  0.611
atomic mag. moment =     0.903239
atom    2   Tr[ns(na)] (up, down, total) =   3.27856  4.22124  7.49980
   spin  1
    eigenvalues: 
  0.475  0.499  0.735  0.750  0.819
    eigenvectors:
  0.000  0.138  0.000  0.009  0.853
  0.811  0.000  0.189  0.000  0.000
  0.189  0.000  0.811  0.000  0.000
  0.000  0.271  0.000  0.642  0.086
  0.000  0.591  0.000  0.348  0.061
    occupations:
  0.774 -0.000 -0.000 -0.067 -0.087
 -0.000  0.524 -0.102  0.000  0.000
 -0.000 -0.102  0.686  0.000  0.000
 -0.067  0.000  0.000  0.688 -0.095
 -0.087  0.000  0.000 -0.095  0.606
   spin  2
    eigenvalues: 
  0.693  0.709  0.920  0.933  0.967
    eigenvectors:
  0.000  0.244  0.048  0.000  0.708
  0.836  0.000  0.000  0.164  0.000
  0.164  0.000  0.000  0.836  0.000
  0.000  0.332  0.652  0.000  0.016
  0.000  0.425  0.299  0.000  0.276
    occupations:
  0.902 -0.000 -0.000 -0.065 -0.089
 -0.000  0.732 -0.089  0.000  0.000
 -0.000 -0.089  0.893  0.000  0.000
 -0.065  0.000  0.000  0.851 -0.076
 -0.089  0.000  0.000 -0.076  0.843
atomic mag. moment =    -0.942684
N of occupied +U levels =   15.014351
 --- exit write_ns ---

     negative rho (up, down):  1.678E-04 1.627E-04
 --- in v_hubbard ---
Hubbard energy    0.0000
 -------

     total cpu time spent up to now is      135.2 secs

     total energy              =    -923.90262071 Ry
     Harris-Foulkes estimate   =    -923.87719097 Ry
     estimated scf accuracy    <       0.08385225 Ry

     total magnetization       =    -0.05 Bohr mag/cell
     absolute magnetization    =     2.65 Bohr mag/cell

     iteration #  7     ecut=    90.00 Ry     beta=0.50
     Davidson diagonalization with overlap
     ethr =  1.50E-04,  avg # of iterations =  2.7
 --- enter write_ns ---
 LDA+U parameters:
U( 1)     =  0.00000000
alpha( 1) =  0.00000000
U( 2)     =  0.00000000
alpha( 2) =  0.00000000
atom    1   Tr[ns(na)] (up, down, total) =   4.06332  3.48799  7.55131
   spin  1
    eigenvalues: 
  0.622  0.669  0.902  0.913  0.957
    eigenvectors:
  0.000  0.256  0.051  0.000  0.693
  0.840  0.000  0.000  0.160  0.000
  0.160  0.000  0.000  0.840  0.000
  0.000  0.332  0.650  0.000  0.017
  0.000  0.412  0.298  0.000  0.290
    occupations:
  0.881 -0.000  0.000 -0.074  0.100
 -0.000  0.668  0.107  0.000  0.000
  0.000  0.107  0.867  0.000  0.000
 -0.074  0.000  0.000  0.825  0.082
  0.100  0.000  0.000  0.082  0.822
   spin  2
    eigenvalues: 
  0.487  0.524  0.778  0.792  0.907
    eigenvectors:
  0.000  0.175  0.000  0.000  0.825
  0.808  0.000  0.192  0.000  0.000
  0.192  0.000  0.808  0.000  0.000
  0.000  0.286  0.000  0.654  0.060
  0.000  0.538  0.000  0.346  0.115
    occupations:
  0.840 -0.000  0.000 -0.086  0.118
 -0.000  0.543  0.115  0.000  0.000
  0.000  0.115  0.723  0.000  0.000
 -0.086  0.000  0.000  0.722  0.096
  0.118  0.000  0.000  0.096  0.661
atomic mag. moment =     0.575327
atom    2   Tr[ns(na)] (up, down, total) =   3.43826  4.05808  7.49633
   spin  1
    eigenvalues: 
  0.486  0.519  0.774  0.786  0.873
    eigenvectors:
  0.000  0.171  0.000  0.001  0.828
  0.808  0.000  0.192  0.000  0.000
  0.192  0.000  0.808  0.000  0.000
  0.000  0.286  0.000  0.664  0.049
  0.000  0.543  0.000  0.335  0.122
    occupations:
  0.812 -0.000 -0.000 -0.077 -0.109
 -0.000  0.541 -0.113  0.000  0.000
 -0.000 -0.113  0.719  0.000  0.000
 -0.077  0.000  0.000  0.714 -0.098
 -0.109  0.000  0.000 -0.098  0.652
   spin  2
    eigenvalues: 
  0.622  0.666  0.901  0.912  0.957
    eigenvectors:
  0.000  0.253  0.046  0.000  0.701
  0.839  0.000  0.000  0.161  0.000
  0.161  0.000  0.000  0.839  0.000
  0.000  0.333  0.647  0.000  0.020
  0.000  0.414  0.307  0.000  0.280
    occupations:
  0.881 -0.000 -0.000 -0.075 -0.101
 -0.000  0.668 -0.107  0.000  0.000
 -0.000 -0.107  0.865  0.000  0.000
 -0.075  0.000  0.000  0.824 -0.083
 -0.101  0.000  0.000 -0.083  0.820
atomic mag. moment =    -0.619821
N of occupied +U levels =   15.047639
 --- exit write_ns ---
 --- in v_hubbard ---
Hubbard energy    0.0000
 -------

     total cpu time spent up to now is      155.6 secs

     total energy              =    -923.91543965 Ry
     Harris-Foulkes estimate   =    -923.91477621 Ry
     estimated scf accuracy    <       0.04242329 Ry

     total magnetization       =    -0.04 Bohr mag/cell
     absolute magnetization    =     1.80 Bohr mag/cell

     iteration #  8     ecut=    90.00 Ry     beta=0.50
     Davidson diagonalization with overlap
     ethr =  7.58E-05,  avg # of iterations =  3.2
 --- enter write_ns ---
 LDA+U parameters:
U( 1)     =  0.00000000
alpha( 1) =  0.00000000
U( 2)     =  0.00000000
alpha( 2) =  0.00000000
atom    1   Tr[ns(na)] (up, down, total) =   3.80346  3.73698  7.54044
   spin  1
    eigenvalues: 
  0.545  0.598  0.860  0.868  0.932
    eigenvectors:
  0.000  0.243  0.021  0.000  0.736
  0.820  0.000  0.000  0.180  0.000
  0.180  0.000  0.000  0.820  0.000
  0.000  0.337  0.623  0.000  0.040
  0.000  0.420  0.355  0.000  0.225
    occupations:
  0.850 -0.000  0.000 -0.087  0.113
 -0.000  0.603  0.124  0.000  0.000
  0.000  0.124  0.810  0.000  0.000
 -0.087  0.000  0.000  0.775  0.091
  0.113  0.000  0.000  0.091  0.766
   spin  2
    eigenvalues: 
  0.531  0.580  0.845  0.849  0.932
    eigenvectors:
  0.000  0.215  0.000  0.007  0.778
  0.800  0.000  0.200  0.000  0.000
  0.200  0.000  0.800  0.000  0.000
  0.000  0.313  0.000  0.641  0.047
  0.000  0.472  0.000  0.352  0.176
    occupations:
  0.855 -0.000  0.000 -0.086  0.116
 -0.000  0.594  0.126  0.000  0.000
  0.000  0.126  0.783  0.000  0.000
 -0.086  0.000  0.000  0.769  0.096
  0.116  0.000  0.000  0.096  0.736
atomic mag. moment =     0.066474
atom    2   Tr[ns(na)] (up, down, total) =   3.71177  3.76948  7.48125
   spin  1
    eigenvalues: 
  0.522  0.576  0.838  0.846  0.931
    eigenvectors:
  0.000  0.216  0.000  0.009  0.774
  0.801  0.000  0.199  0.000  0.000
  0.199  0.000  0.801  0.000  0.000
  0.000  0.310  0.000  0.647  0.042
  0.000  0.473  0.000  0.343  0.183
    occupations:
  0.853 -0.000 -0.000 -0.085 -0.118
 -0.000  0.584 -0.126  0.000  0.000
 -0.000 -0.126  0.775  0.000  0.000
 -0.085  0.000  0.000  0.766 -0.096
 -0.118  0.000  0.000 -0.096  0.734
   spin  2
    eigenvalues: 
  0.535  0.594  0.855  0.860  0.925
    eigenvectors:
  0.000  0.247  0.029  0.000  0.724
  0.821  0.000  0.000  0.179  0.000
  0.179  0.000  0.000  0.821  0.000
  0.000  0.333  0.635  0.000  0.032
  0.000  0.420  0.336  0.000  0.244
    occupations:
  0.841 -0.000 -0.000 -0.086 -0.114
 -0.000  0.593 -0.125  0.000  0.000
 -0.000 -0.125  0.802  0.000  0.000
 -0.086  0.000  0.000  0.770 -0.092
 -0.114  0.000  0.000 -0.092  0.763
atomic mag. moment =    -0.057703
N of occupied +U levels =   15.021686
 --- exit write_ns ---
 --- in v_hubbard ---
Hubbard energy    0.0000
 -------

     total cpu time spent up to now is      179.1 secs

     total energy              =    -923.94833230 Ry
     Harris-Foulkes estimate   =    -923.94863673 Ry
     estimated scf accuracy    <       0.00486865 Ry

     total magnetization       =     0.01 Bohr mag/cell
     absolute magnetization    =     0.27 Bohr mag/cell

     iteration #  9     ecut=    90.00 Ry     beta=0.50
     Davidson diagonalization with overlap
     ethr =  8.69E-06,  avg # of iterations =  3.6
 --- enter write_ns ---
 LDA+U parameters:
U( 1)     =  0.00000000
alpha( 1) =  0.00000000
U( 2)     =  0.00000000
alpha( 2) =  0.00000000
atom    1   Tr[ns(na)] (up, down, total) =   3.81657  3.71209  7.52866
   spin  1
    eigenvalues: 
  0.548  0.602  0.863  0.868  0.936
    eigenvectors:
  0.000  0.240  0.023  0.000  0.737
  0.825  0.000  0.000  0.175  0.000
  0.175  0.000  0.000  0.825  0.000
  0.000  0.331  0.633  0.000  0.036
  0.000  0.429  0.344  0.000  0.227
    occupations:
  0.854 -0.000  0.000 -0.086  0.114
 -0.000  0.604  0.122  0.000  0.000
  0.000  0.122  0.812  0.000  0.000
 -0.086  0.000  0.000  0.779  0.092
  0.114  0.000  0.000  0.092  0.768
   spin  2
    eigenvalues: 
  0.526  0.575  0.839  0.845  0.928
    eigenvectors:
  0.000  0.212  0.000  0.011  0.777
  0.808  0.000  0.192  0.000  0.000
  0.192  0.000  0.808  0.000  0.000
  0.000  0.310  0.000  0.651  0.039
  0.000  0.478  0.000  0.339  0.184
    occupations:
  0.852 -0.000  0.000 -0.084  0.117
 -0.000  0.586  0.123  0.000  0.000
  0.000  0.123  0.778  0.000  0.000
 -0.084  0.000  0.000  0.764  0.097
  0.117  0.000  0.000  0.097  0.731
atomic mag. moment =     0.104485
atom    2   Tr[ns(na)] (up, down, total) =   3.72048  3.81609  7.53657
   spin  1
    eigenvalues: 
  0.528  0.575  0.843  0.846  0.929
    eigenvectors:
  0.000  0.212  0.000  0.010  0.778
  0.806  0.000  0.194  0.000  0.000
  0.194  0.000  0.806  0.000  0.000
  0.000  0.310  0.000  0.650  0.040
  0.000  0.478  0.000  0.341  0.182
    occupations:
  0.853 -0.000 -0.000 -0.084 -0.117
 -0.000  0.589 -0.124  0.000  0.000
 -0.000 -0.124  0.782  0.000  0.000
 -0.084  0.000  0.000  0.765 -0.097
 -0.117  0.000  0.000 -0.097  0.732
   spin  2
    eigenvalues: 
  0.550  0.602  0.863  0.869  0.933
    eigenvectors:
  0.000  0.242  0.021  0.000  0.736
  0.823  0.000  0.000  0.177  0.000
  0.177  0.000  0.000  0.823  0.000
  0.000  0.330  0.632  0.000  0.038
  0.000  0.428  0.346  0.000  0.226
    occupations:
  0.851 -0.000 -0.000 -0.086 -0.113
 -0.000  0.606 -0.122  0.000  0.000
 -0.000 -0.122  0.812  0.000  0.000
 -0.086  0.000  0.000  0.779 -0.091
 -0.113  0.000  0.000 -0.091  0.767
atomic mag. moment =    -0.095608
N of occupied +U levels =   15.065230
 --- exit write_ns ---
 --- in v_hubbard ---
Hubbard energy    0.0000
 -------

     total cpu time spent up to now is      205.2 secs

     total energy              =    -923.95026896 Ry
     Harris-Foulkes estimate   =    -923.94970189 Ry
     estimated scf accuracy    <       0.00109874 Ry

     total magnetization       =     0.01 Bohr mag/cell
     absolute magnetization    =     0.34 Bohr mag/cell

     iteration # 10     ecut=    90.00 Ry     beta=0.50
     Davidson diagonalization with overlap
     ethr =  1.96E-06,  avg # of iterations =  2.8
 --- enter write_ns ---
 LDA+U parameters:
U( 1)     =  0.00000000
alpha( 1) =  0.00000000
U( 2)     =  0.00000000
alpha( 2) =  0.00000000
atom    1   Tr[ns(na)] (up, down, total) =   3.79253  3.73961  7.53213
   spin  1
    eigenvalues: 
  0.543  0.595  0.858  0.863  0.933
    eigenvectors:
  0.000  0.236  0.019  0.000  0.745
  0.822  0.000  0.000  0.178  0.000
  0.178  0.000  0.000  0.822  0.000
  0.000  0.328  0.634  0.000  0.038
  0.000  0.436  0.347  0.000  0.217
    occupations:
  0.852 -0.000  0.000 -0.086  0.115
 -0.000  0.600  0.122  0.000  0.000
  0.000  0.122  0.806  0.000  0.000
 -0.086  0.000  0.000  0.774  0.093
  0.115  0.000  0.000  0.093  0.759
   spin  2
    eigenvalues: 
  0.532  0.582  0.847  0.849  0.929
    eigenvectors:
  0.000  0.217  0.000  0.012  0.771
  0.811  0.000  0.189  0.000  0.000
  0.189  0.000  0.811  0.000  0.000
  0.000  0.314  0.000  0.647  0.039
  0.000  0.469  0.000  0.341  0.190
    occupations:
  0.853 -0.000  0.000 -0.084  0.116
 -0.000  0.592  0.123  0.000  0.000
  0.000  0.123  0.788  0.000  0.000
 -0.084  0.000  0.000  0.768  0.096
  0.116  0.000  0.000  0.096  0.739
atomic mag. moment =     0.052923
atom    2   Tr[ns(na)] (up, down, total) =   3.73653  3.78045  7.51698
   spin  1
    eigenvalues: 
  0.530  0.581  0.847  0.849  0.931
    eigenvectors:
  0.000  0.218  0.000  0.013  0.770
  0.811  0.000  0.189  0.000  0.000
  0.189  0.000  0.811  0.000  0.000
  0.000  0.312  0.000  0.650  0.038
  0.000  0.470  0.000  0.338  0.192
    occupations:
  0.853 -0.000 -0.000 -0.084 -0.117
 -0.000  0.590 -0.124  0.000  0.000
 -0.000 -0.124  0.787  0.000  0.000
 -0.084  0.000  0.000  0.768 -0.096
 -0.117  0.000  0.000 -0.096  0.738
   spin  2
    eigenvalues: 
  0.541  0.593  0.856  0.861  0.930
    eigenvectors:
  0.000  0.235  0.021  0.000  0.744
  0.823  0.000  0.000  0.177  0.000
  0.177  0.000  0.000  0.823  0.000
  0.000  0.327  0.638  0.000  0.035
  0.000  0.438  0.341  0.000  0.221
    occupations:
  0.849 -0.000 -0.000 -0.085 -0.114
 -0.000  0.597 -0.122  0.000  0.000
 -0.000 -0.122  0.804  0.000  0.000
 -0.085  0.000  0.000  0.773 -0.093
 -0.114  0.000  0.000 -0.093  0.757
atomic mag. moment =    -0.043919
N of occupied +U levels =   15.049112
 --- exit write_ns ---
 --- in v_hubbard ---
Hubbard energy    0.0000
 -------

     total cpu time spent up to now is      228.8 secs

     total energy              =    -923.95079958 Ry
     Harris-Foulkes estimate   =    -923.95075614 Ry
     estimated scf accuracy    <       0.00039198 Ry

     total magnetization       =     0.01 Bohr mag/cell
     absolute magnetization    =     0.17 Bohr mag/cell

     iteration # 11     ecut=    90.00 Ry     beta=0.50
     Davidson diagonalization with overlap
     ethr =  7.00E-07,  avg # of iterations =  2.8
 --- enter write_ns ---
 LDA+U parameters:
U( 1)     =  0.00000000
alpha( 1) =  0.00000000
U( 2)     =  0.00000000
alpha( 2) =  0.00000000
atom    1   Tr[ns(na)] (up, down, total) =   3.76342  3.76150  7.52492
   spin  1
    eigenvalues: 
  0.536  0.587  0.853  0.856  0.931
    eigenvectors:
  0.000  0.230  0.018  0.000  0.752
  0.820  0.000  0.000  0.180  0.000
  0.180  0.000  0.000  0.820  0.000
  0.000  0.325  0.638  0.000  0.037
  0.000  0.445  0.344  0.000  0.211
    occupations:
  0.850 -0.000  0.000 -0.086  0.116
 -0.000  0.594  0.123  0.000  0.000
  0.000  0.123  0.799  0.000  0.000
 -0.086  0.000  0.000  0.770  0.094
  0.116  0.000  0.000  0.094  0.751
   spin  2
    eigenvalues: 
  0.536  0.588  0.853  0.853  0.931
    eigenvectors:
  0.000  0.223  0.000  0.014  0.763
  0.814  0.000  0.186  0.000  0.000
  0.186  0.000  0.814  0.000  0.000
  0.000  0.317  0.000  0.645  0.038
  0.000  0.460  0.000  0.341  0.198
    occupations:
  0.854 -0.000  0.000 -0.084  0.115
 -0.000  0.595  0.123  0.000  0.000
  0.000  0.123  0.794  0.000  0.000
 -0.084  0.000  0.000  0.772  0.095
  0.115  0.000  0.000  0.095  0.746
atomic mag. moment =     0.001911
atom    2   Tr[ns(na)] (up, down, total) =   3.76306  3.75476  7.51783
   spin  1
    eigenvalues: 
  0.536  0.587  0.853  0.854  0.933
    eigenvectors:
  0.000  0.224  0.014  0.000  0.763
  0.814  0.000  0.000  0.186  0.000
  0.186  0.000  0.000  0.814  0.000
  0.000  0.316  0.645  0.000  0.038
  0.000  0.460  0.341  0.000  0.199
    occupations:
  0.854 -0.000 -0.000 -0.084 -0.116
 -0.000  0.595 -0.124  0.000  0.000
 -0.000 -0.124  0.795  0.000  0.000
 -0.084  0.000  0.000  0.772 -0.095
 -0.116  0.000  0.000 -0.095  0.747
   spin  2
    eigenvalues: 
  0.535  0.587  0.852  0.855  0.926
    eigenvectors:
  0.000  0.229  0.019  0.000  0.752
  0.819  0.000  0.000  0.181  0.000
  0.181  0.000  0.000  0.819  0.000
  0.000  0.325  0.640  0.000  0.035
  0.000  0.446  0.341  0.000  0.213
    occupations:
  0.847 -0.000 -0.000 -0.084 -0.114
 -0.000  0.593 -0.123  0.000  0.000
 -0.000 -0.123  0.797  0.000  0.000
 -0.084  0.000  0.000  0.768 -0.094
 -0.114  0.000  0.000 -0.094  0.749
atomic mag. moment =     0.008298
N of occupied +U levels =   15.042745
 --- exit write_ns ---
 --- in v_hubbard ---
Hubbard energy    0.0000
 -------

     total cpu time spent up to now is      252.8 secs

     total energy              =    -923.95109238 Ry
     Harris-Foulkes estimate   =    -923.95113786 Ry
     estimated scf accuracy    <       0.00025693 Ry

     total magnetization       =     0.01 Bohr mag/cell
     absolute magnetization    =     0.04 Bohr mag/cell

     iteration # 12     ecut=    90.00 Ry     beta=0.50
     Davidson diagonalization with overlap
     ethr =  4.59E-07,  avg # of iterations =  2.1
 --- enter write_ns ---
 LDA+U parameters:
U( 1)     =  0.00000000
alpha( 1) =  0.00000000
U( 2)     =  0.00000000
alpha( 2) =  0.00000000
atom    1   Tr[ns(na)] (up, down, total) =   3.77810  3.75733  7.53543
   spin  1
    eigenvalues: 
  0.540  0.591  0.856  0.858  0.933
    eigenvectors:
  0.000  0.229  0.016  0.000  0.755
  0.819  0.000  0.000  0.181  0.000
  0.181  0.000  0.000  0.819  0.000
  0.000  0.322  0.640  0.000  0.038
  0.000  0.449  0.344  0.000  0.207
    occupations:
  0.853 -0.000  0.000 -0.085  0.116
 -0.000  0.598  0.123  0.000  0.000
  0.000  0.123  0.801  0.000  0.000
 -0.085  0.000  0.000  0.773  0.094
  0.116  0.000  0.000  0.094  0.753
   spin  2
    eigenvalues: 
  0.536  0.587  0.853  0.853  0.929
    eigenvectors:
  0.000  0.222  0.015  0.000  0.762
  0.816  0.000  0.000  0.184  0.000
  0.184  0.000  0.000  0.816  0.000
  0.000  0.318  0.646  0.000  0.036
  0.000  0.460  0.339  0.000  0.201
    occupations:
  0.852 -0.000  0.000 -0.083  0.115
 -0.000  0.595  0.123  0.000  0.000
  0.000  0.123  0.795  0.000  0.000
 -0.083  0.000  0.000  0.771  0.095
  0.115  0.000  0.000  0.095  0.746
atomic mag. moment =     0.020771
atom    2   Tr[ns(na)] (up, down, total) =   3.76224  3.77662  7.53885
   spin  1
    eigenvalues: 
  0.536  0.587  0.853  0.854  0.931
    eigenvectors:
  0.000  0.224  0.015  0.000  0.762
  0.816  0.000  0.000  0.184  0.000
  0.184  0.000  0.000  0.816  0.000
  0.000  0.317  0.645  0.000  0.038
  0.000  0.459  0.341  0.000  0.201
    occupations:
  0.853 -0.000 -0.000 -0.084 -0.116
 -0.000  0.595 -0.123  0.000  0.000
 -0.000 -0.123  0.796  0.000  0.000
 -0.084  0.000  0.000  0.772 -0.095
 -0.116  0.000  0.000 -0.095  0.747
   spin  2
    eigenvalues: 
  0.541  0.591  0.856  0.857  0.932
    eigenvectors:
  0.000  0.228  0.016  0.000  0.757
  0.819  0.000  0.000  0.181  0.000
  0.181  0.000  0.000  0.819  0.000
  0.000  0.323  0.639  0.000  0.038
  0.000  0.450  0.345  0.000  0.205
    occupations:
  0.853 -0.000 -0.000 -0.085 -0.115
 -0.000  0.598 -0.122  0.000  0.000
 -0.000 -0.122  0.800  0.000  0.000
 -0.085  0.000  0.000  0.773 -0.094
 -0.115  0.000  0.000 -0.094  0.752
atomic mag. moment =    -0.014382
N of occupied +U levels =   15.074282
 --- exit write_ns ---
 --- in v_hubbard ---
Hubbard energy    0.0000
 -------

     total cpu time spent up to now is      273.0 secs

     total energy              =    -923.95118523 Ry
     Harris-Foulkes estimate   =    -923.95121001 Ry
     estimated scf accuracy    <       0.00017476 Ry

     total magnetization       =     0.01 Bohr mag/cell
     absolute magnetization    =     0.05 Bohr mag/cell

     iteration # 13     ecut=    90.00 Ry     beta=0.50
     Davidson diagonalization with overlap
     ethr =  3.12E-07,  avg # of iterations =  1.8
 --- enter write_ns ---
 LDA+U parameters:
U( 1)     =  0.00000000
alpha( 1) =  0.00000000
U( 2)     =  0.00000000
alpha( 2) =  0.00000000
atom    1   Tr[ns(na)] (up, down, total) =   3.76824  3.76131  7.52955
   spin  1
    eigenvalues: 
  0.538  0.588  0.854  0.856  0.932
    eigenvectors:
  0.000  0.228  0.016  0.000  0.756
  0.818  0.000  0.000  0.182  0.000
  0.182  0.000  0.000  0.818  0.000
  0.000  0.322  0.640  0.000  0.038
  0.000  0.450  0.344  0.000  0.206
    occupations:
  0.852 -0.000  0.000 -0.085  0.116
 -0.000  0.596  0.123  0.000  0.000
  0.000  0.123  0.798  0.000  0.000
 -0.085  0.000  0.000  0.771  0.094
  0.116  0.000  0.000  0.094  0.751
   spin  2
    eigenvalues: 
  0.537  0.588  0.853  0.854  0.930
    eigenvectors:
  0.000  0.224  0.015  0.000  0.761
  0.816  0.000  0.000  0.184  0.000
  0.184  0.000  0.000  0.816  0.000
  0.000  0.319  0.644  0.000  0.037
  0.000  0.457  0.341  0.000  0.202
    occupations:
  0.852 -0.000  0.000 -0.084  0.115
 -0.000  0.595  0.123  0.000  0.000
  0.000  0.123  0.795  0.000  0.000
 -0.084  0.000  0.000  0.771  0.095
  0.115  0.000  0.000  0.095  0.747
atomic mag. moment =     0.006926
atom    2   Tr[ns(na)] (up, down, total) =   3.76456  3.76545  7.53001
   spin  1
    eigenvalues: 
  0.537  0.588  0.854  0.855  0.932
    eigenvectors:
  0.000  0.225  0.015  0.000  0.760
  0.816  0.000  0.000  0.184  0.000
  0.184  0.000  0.000  0.816  0.000
  0.000  0.318  0.644  0.000  0.038
  0.000  0.456  0.342  0.000  0.202
    occupations:
  0.853 -0.000 -0.000 -0.085 -0.116
 -0.000  0.595 -0.123  0.000  0.000
 -0.000 -0.123  0.796  0.000  0.000
 -0.085  0.000  0.000  0.772 -0.095
 -0.116  0.000  0.000 -0.095  0.748
   spin  2
    eigenvalues: 
  0.538  0.588  0.854  0.855  0.930
    eigenvectors:
  0.000  0.227  0.016  0.000  0.757
  0.818  0.000  0.000  0.182  0.000
  0.182  0.000  0.000  0.818  0.000
  0.000  0.323  0.640  0.000  0.037
  0.000  0.451  0.344  0.000  0.205
    occupations:
  0.851 -0.000 -0.000 -0.085 -0.115
 -0.000  0.596 -0.123  0.000  0.000
 -0.000 -0.123  0.798  0.000  0.000
 -0.085  0.000  0.000  0.771 -0.094
 -0.115  0.000  0.000 -0.094  0.750
atomic mag. moment =    -0.000885
N of occupied +U levels =   15.059558
 --- exit write_ns ---
 --- in v_hubbard ---
Hubbard energy    0.0000
 -------

     total cpu time spent up to now is      292.0 secs

     total energy              =    -923.95121964 Ry
     Harris-Foulkes estimate   =    -923.95121712 Ry
     estimated scf accuracy    <       0.00000414 Ry

     total magnetization       =     0.01 Bohr mag/cell
     absolute magnetization    =     0.02 Bohr mag/cell

     iteration # 14     ecut=    90.00 Ry     beta=0.50
     Davidson diagonalization with overlap
     ethr =  7.39E-09,  avg # of iterations =  3.8
 --- enter write_ns ---
 LDA+U parameters:
U( 1)     =  0.00000000
alpha( 1) =  0.00000000
U( 2)     =  0.00000000
alpha( 2) =  0.00000000
atom    1   Tr[ns(na)] (up, down, total) =   3.76674  3.76297  7.52972
   spin  1
    eigenvalues: 
  0.537  0.588  0.854  0.856  0.932
    eigenvectors:
  0.000  0.227  0.016  0.000  0.757
  0.817  0.000  0.000  0.183  0.000
  0.183  0.000  0.000  0.817  0.000
  0.000  0.321  0.641  0.000  0.038
  0.000  0.452  0.344  0.000  0.205
    occupations:
  0.852 -0.000  0.000 -0.085  0.116
 -0.000  0.596  0.123  0.000  0.000
  0.000  0.123  0.798  0.000  0.000
 -0.085  0.000  0.000  0.771  0.094
  0.116  0.000  0.000  0.094  0.750
   spin  2
    eigenvalues: 
  0.537  0.588  0.853  0.855  0.930
    eigenvectors:
  0.000  0.225  0.015  0.000  0.760
  0.816  0.000  0.000  0.184  0.000
  0.184  0.000  0.000  0.816  0.000
  0.000  0.320  0.643  0.000  0.037
  0.000  0.456  0.342  0.000  0.203
    occupations:
  0.852 -0.000  0.000 -0.084  0.115
 -0.000  0.595  0.123  0.000  0.000
  0.000  0.123  0.796  0.000  0.000
 -0.084  0.000  0.000  0.771  0.095
  0.115  0.000  0.000  0.095  0.748
atomic mag. moment =     0.003768
atom    2   Tr[ns(na)] (up, down, total) =   3.76473  3.76432  7.52905
   spin  1
    eigenvalues: 
  0.537  0.588  0.854  0.855  0.931
    eigenvectors:
  0.000  0.226  0.015  0.000  0.759
  0.816  0.000  0.000  0.184  0.000
  0.184  0.000  0.000  0.816  0.000
  0.000  0.319  0.643  0.000  0.038
  0.000  0.455  0.342  0.000  0.203
    occupations:
  0.853 -0.000 -0.000 -0.085 -0.116
 -0.000  0.595 -0.123  0.000  0.000
 -0.000 -0.123  0.797  0.000  0.000
 -0.085  0.000  0.000  0.772 -0.094
 -0.116  0.000  0.000 -0.094  0.748
   spin  2
    eigenvalues: 
  0.537  0.588  0.854  0.855  0.930
    eigenvectors:
  0.000  0.226  0.016  0.000  0.758
  0.817  0.000  0.000  0.183  0.000
  0.183  0.000  0.000  0.817  0.000
  0.000  0.322  0.641  0.000  0.038
  0.000  0.453  0.343  0.000  0.204
    occupations:
  0.852 -0.000 -0.000 -0.084 -0.115
 -0.000  0.595 -0.123  0.000  0.000
 -0.000 -0.123  0.797  0.000  0.000
 -0.084  0.000  0.000  0.771 -0.095
 -0.115  0.000  0.000 -0.095  0.749
atomic mag. moment =     0.000414
N of occupied +U levels =   15.058769
 --- exit write_ns ---
 --- in v_hubbard ---
Hubbard energy    0.0000
 -------

     total cpu time spent up to now is      322.9 secs

     total energy              =    -923.95122330 Ry
     Harris-Foulkes estimate   =    -923.95122309 Ry
     estimated scf accuracy    <       0.00000122 Ry

     total magnetization       =     0.00 Bohr mag/cell
     absolute magnetization    =     0.01 Bohr mag/cell

     iteration # 15     ecut=    90.00 Ry     beta=0.50
     Davidson diagonalization with overlap
     ethr =  2.17E-09,  avg # of iterations =  2.3
 --- enter write_ns ---
 LDA+U parameters:
U( 1)     =  0.00000000
alpha( 1) =  0.00000000
U( 2)     =  0.00000000
alpha( 2) =  0.00000000
atom    1   Tr[ns(na)] (up, down, total) =   3.76502  3.76365  7.52867
   spin  1
    eigenvalues: 
  0.537  0.588  0.854  0.855  0.931
    eigenvectors:
  0.000  0.226  0.016  0.000  0.758
  0.817  0.000  0.000  0.183  0.000
  0.183  0.000  0.000  0.817  0.000
  0.000  0.321  0.641  0.000  0.038
  0.000  0.453  0.343  0.000  0.204
    occupations:
  0.852 -0.000  0.000 -0.085  0.116
 -0.000  0.595  0.123  0.000  0.000
  0.000  0.123  0.797  0.000  0.000
 -0.085  0.000  0.000  0.771  0.094
  0.116  0.000  0.000  0.094  0.749
   spin  2
    eigenvalues: 
  0.537  0.588  0.853  0.855  0.930
    eigenvectors:
  0.000  0.225  0.016  0.000  0.759
  0.816  0.000  0.000  0.184  0.000
  0.184  0.000  0.000  0.816  0.000
  0.000  0.320  0.642  0.000  0.037
  0.000  0.454  0.342  0.000  0.203
    occupations:
  0.852 -0.000  0.000 -0.084  0.115
 -0.000  0.595  0.123  0.000  0.000
  0.000  0.123  0.797  0.000  0.000
 -0.084  0.000  0.000  0.771  0.095
  0.115  0.000  0.000  0.095  0.748
atomic mag. moment =     0.001365
atom    2   Tr[ns(na)] (up, down, total) =   3.76564  3.76414  7.52978
   spin  1
    eigenvalues: 
  0.537  0.588  0.854  0.855  0.931
    eigenvectors:
  0.000  0.226  0.015  0.000  0.758
  0.816  0.000  0.000  0.184  0.000
  0.184  0.000  0.000  0.816  0.000
  0.000  0.320  0.642  0.000  0.038
  0.000  0.454  0.343  0.000  0.204
    occupations:
  0.852 -0.000 -0.000 -0.085 -0.116
 -0.000  0.596 -0.123  0.000  0.000
 -0.000 -0.123  0.797  0.000  0.000
 -0.085  0.000  0.000  0.772 -0.094
 -0.116  0.000  0.000 -0.094  0.749
   spin  2
    eigenvalues: 
  0.537  0.588  0.854  0.855  0.930
    eigenvectors:
  0.000  0.226  0.016  0.000  0.759
  0.817  0.000  0.000  0.183  0.000
  0.183  0.000  0.000  0.817  0.000
  0.000  0.321  0.641  0.000  0.038
  0.000  0.453  0.343  0.000  0.204
    occupations:
  0.852 -0.000 -0.000 -0.084 -0.115
 -0.000  0.595 -0.123  0.000  0.000
 -0.000 -0.123  0.797  0.000  0.000
 -0.084  0.000  0.000  0.771 -0.095
 -0.115  0.000  0.000 -0.095  0.749
atomic mag. moment =     0.001507
N of occupied +U levels =   15.058448
 --- exit write_ns ---
 --- in v_hubbard ---
Hubbard energy    0.0000
 -------

     total cpu time spent up to now is      344.4 secs

[...]
     7.3777   8.0568   8.4905   8.9803   9.1702   9.3138  11.0077  11.0434
    11.2664  11.4508  11.9628  11.9715  13.3806  13.8916  14.3620  14.3898
    15.2163  15.3013  18.2789  18.8799

     occupation numbers 
     1.0000   1.0000   1.0000   1.0000   1.0000   1.0000   1.0000   1.0000
     1.0000   1.0000   1.0000   1.0000   1.0000   1.0000   1.0000   1.0000
     1.0000   1.0000   1.0000   1.0000   1.0000   1.0000   1.0000   1.0000
     1.0000   1.0000   1.0017   1.0022   0.0000   0.0000   0.0000   0.0000
     0.0000   0.0000   0.0000   0.0000

          k =-0.3746 0.1366 0.0000 (  7961 PWs)   bands (ev):

   -74.2225 -74.2224 -40.4184 -40.4180 -40.2855 -40.2854 -40.2580 -40.2576
    -3.4098  -2.3198  -0.8597  -0.4032   4.8950   5.3978   7.3843   7.9152
     8.1157   8.7252   9.1775   9.9106  10.2348  10.7341  10.7924  11.3157
    11.5641  11.6345  11.6707  12.2842  13.8938  14.1653  14.3997  14.6661
    14.6766  15.3572  17.5679  18.0981

     occupation numbers 
     1.0000   1.0000   1.0000   1.0000   1.0000   1.0000   1.0000   1.0000
     1.0000   1.0000   1.0000   1.0000   1.0000   1.0000   1.0000   1.0000
     1.0000   1.0000   1.0000   1.0000   1.0000   1.0000   1.0000   1.0000
     1.0000   1.0000   1.0000   0.8397   0.0000   0.0000   0.0000   0.0000
     0.0000   0.0000   0.0000   0.0000

          k =-0.3746 0.1366-0.1307 (  7964 PWs)   bands (ev):

   -74.2224 -74.2224 -40.4183 -40.4179 -40.2853 -40.2853 -40.2590 -40.2587
    -3.3393  -2.2899  -0.7974  -0.3731   4.9621   5.4453   7.1821   7.8214
     8.1038   8.6660   9.0820   9.6251  10.0920  10.3715  10.8319  11.4125
    11.5196  11.6272  11.8337  12.2776  13.6455  14.1951  14.2704  14.5546
    14.8651  15.4346  18.1295  18.5773

     occupation numbers 
     1.0000   1.0000   1.0000   1.0000   1.0000   1.0000   1.0000   1.0000
     1.0000   1.0000   1.0000   1.0000   1.0000   1.0000   1.0000   1.0000
     1.0000   1.0000   1.0000   1.0000   1.0000   1.0000   1.0000   1.0000
     1.0000   1.0000   1.0000   0.8700   0.0000   0.0000   0.0000   0.0000
     0.0000   0.0000   0.0000   0.0000

          k =-0.3746 0.1366-0.2614 (  7953 PWs)   bands (ev):

   -74.2223 -74.2223 -40.4181 -40.4178 -40.2850 -40.2849 -40.2618 -40.2615
    -3.1395  -2.2154  -0.6272  -0.2951   5.1208   5.5782   6.8092   7.4104
     7.9983   8.3839   8.8186   9.3746   9.6622   9.7599  10.9559  11.2916
    11.5188  11.6436  12.0233  12.2215  13.4113  13.9399  14.2940  14.5872
    15.0475  15.4829  19.2326  19.6367

     occupation numbers 
     1.0000   1.0000   1.0000   1.0000   1.0000   1.0000   1.0000   1.0000
     1.0000   1.0000   1.0000   1.0000   1.0000   1.0000   1.0000   1.0000
     1.0000   1.0000   1.0000   1.0000   1.0000   1.0000   1.0000   1.0000
     1.0000   1.0000   1.0095   1.0458   0.0000   0.0000   0.0000   0.0000
     0.0000   0.0000   0.0000   0.0000

          k =-0.3746 0.1366-0.3921 (  7927 PWs)   bands (ev):

   -74.2222 -74.2221 -40.4178 -40.4176 -40.2845 -40.2845 -40.2652 -40.2649
    -2.8473  -2.1423  -0.4007  -0.2027   5.2263   5.7934   6.4185   6.9934
     7.5176   8.1236   8.6450   8.9692   9.2435   9.3660  11.1281  11.1738
    11.4630  11.6225  12.0573  12.1121  13.4546  13.8501  14.2187  14.5521
    15.2138  15.5896  19.4458  19.6473

     occupation numbers 
     1.0000   1.0000   1.0000   1.0000   1.0000   1.0000   1.0000   1.0000
     1.0000   1.0000   1.0000   1.0000   1.0000   1.0000   1.0000   1.0000
     1.0000   1.0000   1.0000   1.0000   1.0000   1.0000   1.0000   1.0000
     1.0000   1.0000   1.0207   1.0528   0.0000   0.0000   0.0000   0.0000
     0.0000   0.0000   0.0000   0.0000

          k =-0.3746 0.1366-0.5228 (  7947 PWs)   bands (ev):

   -74.2220 -74.2220 -40.4176 -40.4175 -40.2842 -40.2842 -40.2679 -40.2678
    -2.5283  -2.1401  -0.2024  -0.1347   5.2373   5.8732   6.1599   6.8231
     7.0628   8.1483   8.3520   8.6228   8.9291   9.0813  11.1204  11.2881
    11.4598  11.5839  12.0071  12.0226  13.5820  13.8680  14.1113  14.3768
    15.4263  15.7790  19.4943  19.5728

     occupation numbers 
     1.0000   1.0000   1.0000   1.0000   1.0000   1.0000   1.0000   1.0000
     1.0000   1.0000   1.0000   1.0000   1.0000   1.0000   1.0000   1.0000
     1.0000   1.0000   1.0000   1.0000   1.0000   1.0000   1.0000   1.0000
     1.0000   1.0000   1.0063   1.0094   0.0000   0.0000   0.0000   0.0000
     0.0000   0.0000   0.0000   0.0000

          k =-0.3746 0.1366 0.6535 (  7942 PWs)   bands (ev):

   -74.2220 -74.2220 -40.4175 -40.4175 -40.2841 -40.2840 -40.2689 -40.2689
    -2.2695  -2.2690  -0.1225  -0.1117   5.2674   5.6911   6.2630   6.5268
     7.2494   7.8672   8.4242   8.6542   8.7713   8.8140  11.1367  11.3113
    11.5067  11.5525  11.9867  11.9891  13.6541  13.8626  14.0642  14.2796
    15.5448  15.8644  19.4973  19.6072

     occupation numbers 
     1.0000   1.0000   1.0000   1.0000   1.0000   1.0000   1.0000   1.0000
     1.0000   1.0000   1.0000   1.0000   1.0000   1.0000   1.0000   1.0000
     1.0000   1.0000   1.0000   1.0000   1.0000   1.0000   1.0000   1.0000
     1.0000   1.0000   1.0035   1.0038   0.0000   0.0000   0.0000   0.0000
     0.0000   0.0000   0.0000   0.0000

          k =-0.3746 0.2732 0.0000 (  7967 PWs)   bands (ev):

   -74.2225 -74.2224 -40.4183 -40.4181 -40.2854 -40.2854 -40.2579 -40.2577
    -3.1396  -2.4233  -1.0746  -0.6433   5.3126   6.0187   6.9847   7.9300
     8.0409   8.2720   9.5616  10.0797  10.1810  10.8024  11.0001  11.1507
    11.3123  11.4530  11.6071  12.0214  13.6733  14.2711  14.3180  14.6231
    14.9924  15.2996  17.5951  18.1612

     occupation numbers 
     1.0000   1.0000   1.0000   1.0000   1.0000   1.0000   1.0000   1.0000
     1.0000   1.0000   1.0000   1.0000   1.0000   1.0000   1.0000   1.0000
     1.0000   1.0000   1.0000   1.0000   1.0000   1.0000   1.0000   1.0000
     1.0000   1.0000   1.0000   1.0091   0.0000   0.0000   0.0000   0.0000
     0.0000   0.0000   0.0000   0.0000

          k =-0.3746 0.2732-0.1307 (  7947 PWs)   bands (ev):

   -74.2224 -74.2224 -40.4182 -40.4180 -40.2853 -40.2853 -40.2589 -40.2588
    -3.0756  -2.3891  -1.0029  -0.6018   5.3335   6.0316   6.7564   7.6305
     8.1502   8.4085   9.5589   9.8083  10.0329  10.3107  10.9848  11.0385
    11.5223  11.5418  11.7195  12.0855  13.6939  14.0519  14.3240  14.4135
    15.0990  15.3697  18.1928  18.7112

     occupation numbers 
     1.0000   1.0000   1.0000   1.0000   1.0000   1.0000   1.0000   1.0000
     1.0000   1.0000   1.0000   1.0000   1.0000   1.0000   1.0000   1.0000
     1.0000   1.0000   1.0000   1.0000   1.0000   1.0000   1.0000   1.0000
     1.0000   1.0000   1.0000   1.0353   0.0000   0.0000   0.0000   0.0000
     0.0000   0.0000   0.0000   0.0000

          k =-0.3746 0.2732-0.2614 (  7951 PWs)   bands (ev):

   -74.2223 -74.2223 -40.4180 -40.4179 -40.2850 -40.2849 -40.2617 -40.2616
    -2.8964  -2.3000  -0.8038  -0.4905   5.3354   6.0328   6.3031   7.1617
     8.2902   8.3466   9.2077   9.3661   9.7119  10.0617  10.8375  10.9622
    11.6056  11.6200  11.8971  12.1156  13.5522  14.0476  14.1265  14.5088
    15.0338  15.4307  19.1913  19.6573

     occupation numbers 
     1.0000   1.0000   1.0000   1.0000   1.0000   1.0000   1.0000   1.0000
     1.0000   1.0000   1.0000   1.0000   1.0000   1.0000   1.0000   1.0000
     1.0000   1.0000   1.0000   1.0000   1.0000   1.0000   1.0000   1.0000
     1.0000   1.0000   1.0002   1.0552   0.0000   0.0000   0.0000   0.0000
     0.0000   0.0000   0.0000   0.0000

          k =-0.3746 0.2732-0.3921 (  7938 PWs)   bands (ev):

   -74.2222 -74.2221 -40.4178 -40.4177 -40.2845 -40.2845 -40.2651 -40.2650
    -2.6426  -2.1965  -0.5301  -0.3482   5.1854   5.8083   5.9893   6.7577
     7.9203   8.4553   8.8690   9.1221   9.4057   9.7808  10.9219  11.0414
    11.5500  11.6283  11.9766  12.0447  13.5567  13.9802  14.2134  14.6535
    14.8007  15.4844  18.9823  19.3081

     occupation numbers 
     1.0000   1.0000   1.0000   1.0000   1.0000   1.0000   1.0000   1.0000
     1.0000   1.0000   1.0000   1.0000   1.0000   1.0000   1.0000   1.0000
     1.0000   1.0000   1.0000   1.0000   1.0000   1.0000   1.0000   1.0000
     1.0000   1.0000   1.0026   1.0158   0.0000   0.0000   0.0000   0.0000
     0.0000   0.0000   0.0000   0.0000

          k =-0.3746 0.2732-0.5228 (  7932 PWs)   bands (ev):

   -74.2220 -74.2220 -40.4176 -40.4175 -40.2842 -40.2842 -40.2679 -40.2678
    -2.3826  -2.1418  -0.2795  -0.2302   4.9672   5.3740   5.9222   6.3738
     7.8772   8.4914   8.6145   9.0374   9.1947   9.5031  11.0554  11.1818
    11.4494  11.6244  11.9863  11.9910  13.6285  14.0008  14.1823  14.4310
    14.9747  15.5749  18.7993  18.9792

     occupation numbers 
     1.0000   1.0000   1.0000   1.0000   1.0000   1.0000   1.0000   1.0000
     1.0000   1.0000   1.0000   1.0000   1.0000   1.0000   1.0000   1.0000
     1.0000   1.0000   1.0000   1.0000   1.0000   1.0000   1.0000   1.0000
     1.0000   1.0000   1.0035   1.0040   0.0000   0.0000   0.0000   0.0000
     0.0000   0.0000   0.0000   0.0000

          k =-0.3746 0.2732 0.6535 (  7946 PWs)   bands (ev):

   -74.2220 -74.2220 -40.4175 -40.4175 -40.2841 -40.2840 -40.2689 -40.2689
    -2.1988  -2.1982  -0.1855  -0.1744   4.8892   5.1703   5.9235   6.1619
     8.0658   8.2581   8.7270   8.8496   9.2769   9.3151  11.1112  11.2377
    11.4048  11.6291  11.9801  11.9807  13.6564  14.0646  14.0838  14.3250
    15.0963  15.6239  18.6883  19.0797

     occupation numbers 
     1.0000   1.0000   1.0000   1.0000   1.0000   1.0000   1.0000   1.0000
     1.0000   1.0000   1.0000   1.0000   1.0000   1.0000   1.0000   1.0000
     1.0000   1.0000   1.0000   1.0000   1.0000   1.0000   1.0000   1.0000
     1.0000   1.0000   1.0029   1.0029   0.0000   0.0000   0.0000   0.0000
     0.0000   0.0000   0.0000   0.0000

     the Fermi energy is    12.3670 ev

!    total energy              =    -923.95118660 Ry
     Harris-Foulkes estimate   =    -923.95118660 Ry
     estimated scf accuracy    <          9.3E-11 Ry

     total all-electron energy =     -8284.948808 Ry

     The total energy is the sum of the following terms:

     one-electron contribution =    -329.84720738 Ry
     hartree contribution      =     197.39935326 Ry
     xc contribution           =     -98.29223655 Ry
     ewald contribution        =    -364.31515980 Ry
     Hubbard energy            =       0.00000000 Ry
     one-center paw contrib.   =    -328.89745564 Ry
     smearing contrib. (-TS)   =       0.00151951 Ry

     total magnetization       =    -0.00 Bohr mag/cell
     absolute magnetization    =     0.00 Bohr mag/cell

     convergence has been achieved in  22 iterations

     Forces acting on atoms (Ry/au):

     atom    1 type  1   force =     0.00000000    0.00000000    0.00000000
     atom    2 type  2   force =     0.00000000    0.00000000    0.00000000
     atom    3 type  3   force =     0.00002539    0.00002106    0.00000000
     atom    4 type  3   force =    -0.00002539   -0.00002106    0.00000000
     atom    5 type  3   force =    -0.00002428    0.00002163    0.00000000
     atom    6 type  3   force =     0.00002428   -0.00002163    0.00000000
     The non-local contrib.  to forces
     atom    1 type  1   force =     0.00000000    0.00000000    0.00000000
     atom    2 type  2   force =     0.00000000    0.00000000    0.00000000
     atom    3 type  3   force =    -0.13056082    0.08670306    0.00000000
     atom    4 type  3   force =     0.13056082   -0.08670306    0.00000000
     atom    5 type  3   force =     0.13055986    0.08670210    0.00000000
     atom    6 type  3   force =    -0.13055986   -0.08670210    0.00000000
     The ionic contribution  to forces
     atom    1 type  1   force =    -0.00000000   -0.00000000   -0.00000000
     atom    2 type  2   force =     0.00000000    0.00000000    0.00000000
     atom    3 type  3   force =    -2.68399858    0.75454561   -0.00000000
     atom    4 type  3   force =     2.68399858   -0.75454561   -0.00000000
     atom    5 type  3   force =     2.68400513    0.75454798   -0.00000000
     atom    6 type  3   force =    -2.68400513   -0.75454798    0.00000000
     The local contribution  to forces
     atom    1 type  1   force =     0.00000000    0.00000000    0.00000000
     atom    2 type  2   force =     0.00000000    0.00000000    0.00000000
     atom    3 type  3   force =     2.80836616   -0.83726699    0.00000000
     atom    4 type  3   force =    -2.80836616    0.83726699   -0.00000000
     atom    5 type  3   force =    -2.80836629   -0.83726480   -0.00000000
     atom    6 type  3   force =     2.80836629    0.83726480    0.00000000
     The core correction contribution to forces
     atom    1 type  1   force =     0.00000000   -0.00000000    0.00000000
     atom    2 type  2   force =    -0.00000000   -0.00000000   -0.00000000
     atom    3 type  3   force =     0.00622154   -0.00396260   -0.00000000
     atom    4 type  3   force =    -0.00622154    0.00396260    0.00000000
     atom    5 type  3   force =    -0.00622146   -0.00396253   -0.00000000
     atom    6 type  3   force =     0.00622146    0.00396253   -0.00000000
     The Hubbard contrib.    to forces
     atom    1 type  1   force =     0.00000000    0.00000000    0.00000000
     atom    2 type  2   force =     0.00000000    0.00000000    0.00000000
     atom    3 type  3   force =    -0.00000000    0.00000000    0.00000000
     atom    4 type  3   force =     0.00000000   -0.00000000    0.00000000
     atom    5 type  3   force =     0.00000000    0.00000000    0.00000000
     atom    6 type  3   force =    -0.00000000   -0.00000000    0.00000000
     The SCF correction term to forces
     atom    1 type  1   force =    -0.00000000   -0.00000000    0.00000000
     atom    2 type  2   force =    -0.00000000    0.00000000    0.00000000
     atom    3 type  3   force =    -0.00000292    0.00000197   -0.00000000
     atom    4 type  3   force =     0.00000292   -0.00000197   -0.00000000
     atom    5 type  3   force =    -0.00000153   -0.00000112   -0.00000000
     atom    6 type  3   force =     0.00000153    0.00000112   -0.00000000

     Total force =     0.000066     Total SCF correction =     0.000006


     entering subroutine stress ...

          total   stress  (Ry/bohr**3)                   (kbar)     P=   -0.18
  -0.00000167   0.00000000   0.00000000         -0.25      0.00      0.00
   0.00000000  -0.00000110   0.00000000          0.00     -0.16      0.00
   0.00000000   0.00000000  -0.00000099          0.00      0.00     -0.15

     kinetic stress (kbar)  29287.38      0.00      0.00
                                0.00  29404.92      0.00
                                0.00      0.00  29733.79

     local   stress (kbar)  12656.58      0.01      0.00
                                0.01   5916.45      0.00
                                0.00      0.00  -2774.82

     nonloc. stress (kbar) -12685.82     -0.00      0.00
                               -0.00 -12674.43      0.00
                                0.00      0.00 -12585.51

     hartree stress (kbar)  14536.19     -0.00      0.00
                               -0.00  17117.48     -0.00
                                0.00     -0.00  21023.53

     exc-cor stress (kbar)    221.56     -0.00      0.00
                               -0.00    225.24     -0.00
                                0.00     -0.00    224.46

     corecor stress (kbar)  -7460.37      0.00     -0.00
                                0.00  -7467.13     -0.00
                               -0.00     -0.00  -7480.38

     ewald   stress (kbar) -36555.77     -0.01      0.00
                               -0.01 -32522.69      0.00
                                0.00      0.00 -28141.22

     hubbard stress (kbar)     -0.00      0.00      0.00
                                0.00     -0.00      0.00
                                0.00      0.00     -0.00

     london  stress (kbar)      0.00      0.00      0.00
                                0.00      0.00      0.00
                                0.00      0.00      0.00

     XDM     stress (kbar)      0.00      0.00      0.00
                                0.00      0.00      0.00
                                0.00      0.00      0.00

     dft-nl  stress (kbar)      0.00      0.00      0.00
                                0.00      0.00      0.00
                                0.00      0.00      0.00

     TS-vdW  stress (kbar)      0.00      0.00      0.00
                                0.00      0.00      0.00
                                0.00      0.00      0.00



     Writing output data file iron_sulfide.save
 
     init_run     :     16.18s CPU     16.52s WALL (       2 calls)
     electrons    :   2883.96s CPU   2937.09s WALL (       7 calls)
     update_pot   :      3.13s CPU      3.43s WALL (       5 calls)
     forces       :     23.62s CPU     24.18s WALL (       7 calls)
     stress       :    127.47s CPU    130.18s WALL (       7 calls)

     Called by init_run:
     wfcinit      :     14.58s CPU     14.84s WALL (       2 calls)
     potinit      :      0.80s CPU      0.83s WALL (       3 calls)

     Called by electrons:
     c_bands      :   2495.67s CPU   2540.68s WALL (     133 calls)
     sum_band     :    360.18s CPU    367.43s WALL (     133 calls)
     v_of_rho     :      2.15s CPU      2.17s WALL (     140 calls)
     v_h          :      0.06s CPU      0.06s WALL (     140 calls)
     v_xc         :      2.28s CPU      2.31s WALL (     154 calls)
     newd         :      6.59s CPU      6.80s WALL (     140 calls)
     PAW_pot      :     20.46s CPU     21.06s WALL (     145 calls)
     mix_rho      :      0.82s CPU      0.90s WALL (     133 calls)

     Called by c_bands:
     init_us_2    :     30.34s CPU     31.52s WALL (  113568 calls)
     cegterg      :   2378.73s CPU   2419.38s WALL (   41496 calls)

     Called by sum_band:
     sum_band:bec :      0.85s CPU      0.82s WALL (   43056 calls)
     addusdens    :     10.90s CPU     11.33s WALL (     133 calls)

     Called by *egterg:
     h_psi        :   1654.33s CPU   1685.82s WALL (  141917 calls)
     s_psi        :     42.36s CPU     42.65s WALL (  165941 calls)
     g_psi        :      8.76s CPU      8.76s WALL (   99797 calls)
     cdiaghg      :    318.07s CPU    319.08s WALL (  139421 calls)
     cegterg:over :     93.37s CPU     96.04s WALL (   99797 calls)
     cegterg:upda :     55.80s CPU     55.91s WALL (   99797 calls)
     cegterg:last :     26.17s CPU     26.20s WALL (   42987 calls)

     Called by h_psi:
     h_psi:vloc   :   1437.29s CPU   1459.70s WALL (  141917 calls)
     h_psi:vnl    :    110.79s CPU    113.39s WALL (  141917 calls)
     add_vuspsi   :     35.85s CPU     36.38s WALL (  141917 calls)
     vhpsi        :     95.73s CPU    101.84s WALL (  141917 calls)

     General routines
     calbec       :    256.04s CPU    265.34s WALL (  916570 calls)
     fft          :      5.02s CPU      5.32s WALL (    3782 calls)
     fftw         :   1663.45s CPU   1665.17s WALL ( 8728524 calls)
     davcio       :      0.02s CPU      0.13s WALL (     624 calls)
 
     Parallel routines
     fft_scatter  :    411.31s CPU    412.97s WALL ( 8732306 calls)

     Hubbard U routines
     new_ns       :     12.53s CPU     13.66s WALL (     133 calls)
     vhpsi        :     95.73s CPU    101.84s WALL (  141917 calls)
     force_hub    :     14.32s CPU     14.72s WALL (       7 calls)
     stres_hub    :    106.53s CPU    109.14s WALL (       7 calls)

     PAW routines
     PAW_pot      :     20.46s CPU     21.06s WALL (     145 calls)
     PAW_symme    :      0.05s CPU      0.05s WALL (     278 calls)
 
     PWSCF        : 51m14.52s CPU    52m30.23s WALL

 
   This run was terminated on:   0:44:22  21Mar2018            

=------------------------------------------------------------------------------=
   JOB DONE.
=------------------------------------------------------------------------------=
Job terminated normally
