 ********************************************************************************
*                       GENERAL UTILITY LATTICE PROGRAM                        *
*                                 Julian Gale                                  *
*                       Curtin Institute for Computation                       *
*                           Department of Chemistry                            *
*                    Curtin University, Western Australia                      *
********************************************************************************
* Version = 4.5.3 * Last modified =  19th April 2017                           *
********************************************************************************

  ReaxFF: Bond order cutoffs:

  Species number =    1   4.04098
  Species number =    2   4.04098


*  single       - perform a single point run                                   *
*  nosymmetry   - turn off symmetry after initial structure generation         *
*  full         - generate full unit cell when symmetry is removed             *
********************************************************************************
* Troilite, no optimisation                                                    *
********************************************************************************


  Job Started  at 08:34.20 25th April      2017

  Number of CPUs =     1


  Total number of configurations input =   1

********************************************************************************
*  Input for Configuration =   1 : troilite                                    *
********************************************************************************

  Formula = Fe12S12

  Number of irreducible atoms/shells =      24


  Total number atoms/shells =      24

  Dimensionality = 3               :  Bulk



  Cartesian lattice vectors (Angstroms) :

        5.965000    0.000000    0.000000
       -2.982500    5.165842    0.000000
        0.000000    0.000000   11.757000

  Cell parameters (Angstroms/Degrees):

  a =       5.9650    alpha =  90.0000
  b =       5.9650    beta  =  90.0000
  c =      11.7570    gamma = 120.0000

  Initial cell volume =         362.283075 Angs**3

  Temperature of configuration =  0.000     K

  Pressure of configuration =         0.000 GPa

  Fractional coordinates of asymmetric unit :

--------------------------------------------------------------------------------
   No.  Atomic       x           y          z         Charge      Occupancy
        Label      (Frac)      (Frac)     (Frac)        (e)         (Frac)
--------------------------------------------------------------------------------
      1 Fe    c    0.379100    0.054900    0.623030     0.00000    1.000000
      2 Fe    c    0.945100    0.324200    0.623030     0.00000    1.000000
      3 Fe    c    0.675800    0.620900    0.623030     0.00000    1.000000
      4 Fe    c    0.324200    0.945100    0.376970     0.00000    1.000000
      5 Fe    c    0.620900    0.675800    0.376970     0.00000    1.000000
      6 Fe    c    0.054900    0.379100    0.376970     0.00000    1.000000
      7 Fe    c    0.054900    0.379100    0.123030     0.00000    1.000000
      8 Fe    c    0.620900    0.675800    0.123030     0.00000    1.000000
      9 Fe    c    0.324200    0.945100    0.123030     0.00000    1.000000
     10 Fe    c    0.379100    0.054900    0.876970     0.00000    1.000000
     11 Fe    c    0.675800    0.620900    0.876970     0.00000    1.000000
     12 Fe    c    0.945100    0.324200    0.876970     0.00000    1.000000
     13 S     c    0.000000    0.000000    0.000000     0.00000    1.000000
     14 S     c    0.000000    0.000000    0.500000     0.00000    1.000000
     15 S     c    0.333333    0.666667    0.519800     0.00000    1.000000
     16 S     c    0.666667    0.333333    0.480200     0.00000    1.000000
     17 S     c    0.666667    0.333333    0.019800     0.00000    1.000000
     18 S     c    0.333333    0.666667    0.980200     0.00000    1.000000
     19 S     c    0.668800    0.003500    0.250000     0.00000    1.000000
     20 S     c    0.996500    0.665300    0.250000     0.00000    1.000000
     21 S     c    0.334700    0.331200    0.250000     0.00000    1.000000
     22 S     c    0.665300    0.996500    0.750000     0.00000    1.000000
     23 S     c    0.331200    0.334700    0.750000     0.00000    1.000000
     24 S     c    0.003500    0.668800    0.750000     0.00000    1.000000
--------------------------------------------------------------------------------



********************************************************************************
*  General input information                                                   *
********************************************************************************

  Species output for all configurations :

--------------------------------------------------------------------------------
  Species    Type    Atomic    Atomic    Charge       Radii (Angs)     Library
                     Number     Mass       (e)     Cova   Ionic  VDW   Symbol
--------------------------------------------------------------------------------
    S        Core       16      32.07   0.000000   1.020  0.000  1.700
    Fe       Core       26      55.85   0.000000   1.340  0.000  2.000
--------------------------------------------------------------------------------


  Lattice summation method               =    Ewald          (3-D)
                                         =    Parry          (2-D)
                                         =    Saunders et al (1-D)
  Accuracy factor for lattice sums       =   12.000


  Time limit = Infinity

  ReaxFF: Bond order cutoffs:

  Species number =    1   4.04098
  Species number =    2   4.04098



  Maximum range for interatomic potentials =    100000.000000 Angstroms

  ReaxFF forcefield to be used

  ReaxFF Coulomb cutoff =  10.0000 Ang
  ReaxFF VDW     cutoff =  10.0000 Ang
  ReaxFF H-bond  cutoff =   7.5000 Ang

  ReaxFF pairwise bond order       threshold = 0.00100000000000
  ReaxFF angle/torsion bond order  threshold = 0.00100000000000
  ReaxFF bond order double product threshold = 0.00000100000000
  ReaxFF bond order triple product threshold = 0.00100000000000
  ReaxFF hydrogen-bond bond order  threshold = 0.01000000000000


********************************************************************************
*  Output for configuration   1 : troilite                                     *
********************************************************************************


  Increasing maxneigh to     18

  ReaxFF: Delta and Bond Order prime:

   1  2.810136    2  0.3849    2  0.0109    2  0.0026    3  0.3849    3  0.0026    3  0.0109
    4  0.3653   10  0.3336   14  0.6798   15  0.0008   15  0.7162   16  0.7852
   22  0.7649   23  0.7956   24  0.0007   24  0.5710
   2  2.810136    1  0.3849    1  0.0109    1  0.0026    3  0.0026    3  0.3849    3  0.0109
    6  0.3653   12  0.3336   14  0.6798   15  0.7162   15  0.0008   16  0.7852
   22  0.7956   23  0.5710   23  0.0007   24  0.7649
   3  2.810135    1  0.3849    1  0.0026    1  0.0109    2  0.0026    2  0.3849    2  0.0109
    5  0.3653   11  0.3336   14  0.6798   15  0.0008   15  0.7162   16  0.7852
   22  0.5710   22  0.0007   23  0.7649   24  0.7956
   4  2.810136    1  0.3653    5  0.0026    5  0.3849    5  0.0109    6  0.0026    6  0.0109
    6  0.3849    9  0.3336   14  0.6798   15  0.7852   16  0.7162   16  0.0008
   19  0.7649   20  0.7956   21  0.5710   21  0.0007
   5  2.810136    3  0.3653    4  0.0026    4  0.3849    4  0.0109    6  0.0109    6  0.0026
    6  0.3849    8  0.3336   14  0.6798   15  0.7852   16  0.0008   16  0.7162
   19  0.7956   20  0.5710   20  0.0007   21  0.7649
   6  2.810135    2  0.3653    4  0.0026    4  0.0109    4  0.3849    5  0.0109    5  0.0026
    5  0.3849    7  0.3336   14  0.6798   15  0.7852   16  0.0008   16  0.7162
   19  0.0007   19  0.5710   20  0.7649   21  0.7956
   7  2.810136    6  0.3336    8  0.3849    8  0.0026    8  0.0109    9  0.3849    9  0.0109
    9  0.0026   12  0.3653   13  0.6798   17  0.0008   17  0.7162   18  0.7852
   19  0.0007   19  0.5710   20  0.7649   21  0.7956
   8  2.810135    5  0.3336    7  0.3849    7  0.0026    7  0.0109    9  0.0109    9  0.3849
    9  0.0026   11  0.3653   13  0.6798   17  0.0008   17  0.7162   18  0.7852
   19  0.7956   20  0.5710   20  0.0007   21  0.7649
   9  2.810136    4  0.3336    7  0.3849    7  0.0109    7  0.0026    8  0.0109    8  0.3849
    8  0.0026   10  0.3653   13  0.6798   17  0.7162   17  0.0008   18  0.7852
   19  0.7649   20  0.7956   21  0.5710   21  0.0007
  10  2.810136    1  0.3336    9  0.3653   11  0.3849   11  0.0026   11  0.0109   12  0.3849
   12  0.0109   12  0.0026   13  0.6798   17  0.7852   18  0.0008   18  0.7162
   22  0.7649   23  0.7956   24  0.0007   24  0.5710
  11  2.810135    3  0.3336    8  0.3653   10  0.3849   10  0.0026   10  0.0109   12  0.0109
   12  0.3849   12  0.0026   13  0.6798   17  0.7852   18  0.0008   18  0.7162
   22  0.5710   22  0.0007   23  0.7649   24  0.7956
  12  2.810136    2  0.3336    7  0.3653   10  0.3849   10  0.0109   10  0.0026   11  0.0109
   11  0.3849   11  0.0026   13  0.6798   17  0.7852   18  0.7162   18  0.0008
   22  0.7956   23  0.5710   23  0.0007   24  0.7649
  13  2.097737    7  0.6798    8  0.6798    9  0.6798   10  0.6798   11  0.6798   12  0.6798
   17  0.0030   17  0.0030   17  0.0030   18  0.0030   18  0.0030   18  0.0030
   19  0.0002   20  0.0002   21  0.0002   22  0.0002   23  0.0002   24  0.0002
  14  2.097737    1  0.6798    2  0.6798    3  0.6798    4  0.6798    5  0.6798    6  0.6798
   15  0.0030   15  0.0030   15  0.0030   16  0.0030   16  0.0030   16  0.0030
   19  0.0002   20  0.0002   21  0.0002   22  0.0002   23  0.0002   24  0.0002
  15  2.549175    1  0.0008    1  0.7162    2  0.7162    2  0.0008    3  0.0008    3  0.7162
    4  0.7852    5  0.7852    6  0.7852   14  0.0030   14  0.0030   14  0.0030
   16  0.0021   16  0.0021   16  0.0021   22  0.0091   23  0.0091   24  0.0091
  16  2.549175    1  0.7852    2  0.7852    3  0.7852    4  0.7162    4  0.0008    5  0.0008
    5  0.7162    6  0.0008    6  0.7162   14  0.0030   14  0.0030   14  0.0030
   15  0.0021   15  0.0021   15  0.0021   19  0.0091   20  0.0091   21  0.0091
  17  2.549175    7  0.0008    7  0.7162    8  0.0008    8  0.7162    9  0.7162    9  0.0008
   10  0.7852   11  0.7852   12  0.7852   13  0.0030   13  0.0030   13  0.0030
   18  0.0021   18  0.0021   18  0.0021   19  0.0091   20  0.0091   21  0.0091
  18  2.549175    7  0.7852    8  0.7852    9  0.7852   10  0.0008   10  0.7162   11  0.0008
   11  0.7162   12  0.7162   12  0.0008   13  0.0030   13  0.0030   13  0.0030
   17  0.0021   17  0.0021   17  0.0021   22  0.0091   23  0.0091   24  0.0091
  19  2.303209    4  0.7649    5  0.7956    6  0.0007    6  0.5710    7  0.0007    7  0.5710
    8  0.7956    9  0.7649   13  0.0002   14  0.0002   16  0.0091   17  0.0091
   20  0.0045   20  0.0035   20  0.0022   21  0.0035   21  0.0045   21  0.0022
  20  2.303209    4  0.7956    5  0.5710    5  0.0007    6  0.7649    7  0.7649    8  0.5710
    8  0.0007    9  0.7956   13  0.0002   14  0.0002   16  0.0091   17  0.0091
   19  0.0045   19  0.0035   19  0.0022   21  0.0035   21  0.0022   21  0.0045
  21  2.303209    4  0.5710    4  0.0007    5  0.7649    6  0.7956    7  0.7956    8  0.7649
    9  0.5710    9  0.0007   13  0.0002   14  0.0002   16  0.0091   17  0.0091
   19  0.0035   19  0.0045   19  0.0022   20  0.0035   20  0.0022   20  0.0045
  22  2.303209    1  0.7649    2  0.7956    3  0.5710    3  0.0007   10  0.7649   11  0.5710
   11  0.0007   12  0.7956   13  0.0002   14  0.0002   15  0.0091   18  0.0091
   23  0.0035   23  0.0022   23  0.0045   24  0.0022   24  0.0035   24  0.0045
  23  2.303209    1  0.7956    2  0.5710    2  0.0007    3  0.7649   10  0.7956   11  0.7649
   12  0.5710   12  0.0007   13  0.0002   14  0.0002   15  0.0091   18  0.0091
   22  0.0035   22  0.0022   22  0.0045   24  0.0022   24  0.0045   24  0.0035
  24  2.303209    1  0.0007    1  0.5710    2  0.7649    3  0.7956   10  0.0007   10  0.5710
   11  0.7956   12  0.7649   13  0.0002   14  0.0002   15  0.0091   18  0.0091
   22  0.0022   22  0.0035   22  0.0045   23  0.0022   23  0.0045   23  0.0035

  ReaxFF: Bond Order sigma prime:

   1    2  0.3849    2  0.0109    2  0.0026    3  0.3849    3  0.0026    3  0.0109
    4  0.3653   10  0.3336   14  0.6798   15  0.0008   15  0.7162   16  0.7852
   22  0.7649   23  0.7956   24  0.0007   24  0.5710
   2    1  0.3849    1  0.0109    1  0.0026    3  0.0026    3  0.3849    3  0.0109
    6  0.3653   12  0.3336   14  0.6798   15  0.7162   15  0.0008   16  0.7852
   22  0.7956   23  0.5710   23  0.0007   24  0.7649
   3    1  0.3849    1  0.0026    1  0.0109    2  0.0026    2  0.3849    2  0.0109
    5  0.3653   11  0.3336   14  0.6798   15  0.0008   15  0.7162   16  0.7852
   22  0.5710   22  0.0007   23  0.7649   24  0.7956
   4    1  0.3653    5  0.0026    5  0.3849    5  0.0109    6  0.0026    6  0.0109
    6  0.3849    9  0.3336   14  0.6798   15  0.7852   16  0.7162   16  0.0008
   19  0.7649   20  0.7956   21  0.5710   21  0.0007
   5    3  0.3653    4  0.0026    4  0.3849    4  0.0109    6  0.0109    6  0.0026
    6  0.3849    8  0.3336   14  0.6798   15  0.7852   16  0.0008   16  0.7162
   19  0.7956   20  0.5710   20  0.0007   21  0.7649
   6    2  0.3653    4  0.0026    4  0.0109    4  0.3849    5  0.0109    5  0.0026
    5  0.3849    7  0.3336   14  0.6798   15  0.7852   16  0.0008   16  0.7162
   19  0.0007   19  0.5710   20  0.7649   21  0.7956
   7    6  0.3336    8  0.3849    8  0.0026    8  0.0109    9  0.3849    9  0.0109
    9  0.0026   12  0.3653   13  0.6798   17  0.0008   17  0.7162   18  0.7852
   19  0.0007   19  0.5710   20  0.7649   21  0.7956
   8    5  0.3336    7  0.3849    7  0.0026    7  0.0109    9  0.0109    9  0.3849
    9  0.0026   11  0.3653   13  0.6798   17  0.0008   17  0.7162   18  0.7852
   19  0.7956   20  0.5710   20  0.0007   21  0.7649
   9    4  0.3336    7  0.3849    7  0.0109    7  0.0026    8  0.0109    8  0.3849
    8  0.0026   10  0.3653   13  0.6798   17  0.7162   17  0.0008   18  0.7852
   19  0.7649   20  0.7956   21  0.5710   21  0.0007
  10    1  0.3336    9  0.3653   11  0.3849   11  0.0026   11  0.0109   12  0.3849
   12  0.0109   12  0.0026   13  0.6798   17  0.7852   18  0.0008   18  0.7162
   22  0.7649   23  0.7956   24  0.0007   24  0.5710
  11    3  0.3336    8  0.3653   10  0.3849   10  0.0026   10  0.0109   12  0.0109
   12  0.3849   12  0.0026   13  0.6798   17  0.7852   18  0.0008   18  0.7162
   22  0.5710   22  0.0007   23  0.7649   24  0.7956
  12    2  0.3336    7  0.3653   10  0.3849   10  0.0109   10  0.0026   11  0.0109
   11  0.3849   11  0.0026   13  0.6798   17  0.7852   18  0.7162   18  0.0008
   22  0.7956   23  0.5710   23  0.0007   24  0.7649
  13    7  0.6798    8  0.6798    9  0.6798   10  0.6798   11  0.6798   12  0.6798
   17  0.0030   17  0.0030   17  0.0030   18  0.0030   18  0.0030   18  0.0030
   19  0.0002   20  0.0002   21  0.0002   22  0.0002   23  0.0002   24  0.0002
  14    1  0.6798    2  0.6798    3  0.6798    4  0.6798    5  0.6798    6  0.6798
   15  0.0030   15  0.0030   15  0.0030   16  0.0030   16  0.0030   16  0.0030
   19  0.0002   20  0.0002   21  0.0002   22  0.0002   23  0.0002   24  0.0002
  15    1  0.0008    1  0.7162    2  0.7162    2  0.0008    3  0.0008    3  0.7162
    4  0.7852    5  0.7852    6  0.7852   14  0.0030   14  0.0030   14  0.0030
   16  0.0021   16  0.0021   16  0.0021   22  0.0091   23  0.0091   24  0.0091
  16    1  0.7852    2  0.7852    3  0.7852    4  0.7162    4  0.0008    5  0.0008
    5  0.7162    6  0.0008    6  0.7162   14  0.0030   14  0.0030   14  0.0030
   15  0.0021   15  0.0021   15  0.0021   19  0.0091   20  0.0091   21  0.0091
  17    7  0.0008    7  0.7162    8  0.0008    8  0.7162    9  0.7162    9  0.0008
   10  0.7852   11  0.7852   12  0.7852   13  0.0030   13  0.0030   13  0.0030
   18  0.0021   18  0.0021   18  0.0021   19  0.0091   20  0.0091   21  0.0091
  18    7  0.7852    8  0.7852    9  0.7852   10  0.0008   10  0.7162   11  0.0008
   11  0.7162   12  0.7162   12  0.0008   13  0.0030   13  0.0030   13  0.0030
   17  0.0021   17  0.0021   17  0.0021   22  0.0091   23  0.0091   24  0.0091
  19    4  0.7649    5  0.7956    6  0.0007    6  0.5710    7  0.0007    7  0.5710
    8  0.7956    9  0.7649   13  0.0002   14  0.0002   16  0.0091   17  0.0091
   20  0.0045   20  0.0035   20  0.0022   21  0.0035   21  0.0045   21  0.0022
  20    4  0.7956    5  0.5710    5  0.0007    6  0.7649    7  0.7649    8  0.5710
    8  0.0007    9  0.7956   13  0.0002   14  0.0002   16  0.0091   17  0.0091
   19  0.0045   19  0.0035   19  0.0022   21  0.0035   21  0.0022   21  0.0045
  21    4  0.5710    4  0.0007    5  0.7649    6  0.7956    7  0.7956    8  0.7649
    9  0.5710    9  0.0007   13  0.0002   14  0.0002   16  0.0091   17  0.0091
   19  0.0035   19  0.0045   19  0.0022   20  0.0035   20  0.0022   20  0.0045
  22    1  0.7649    2  0.7956    3  0.5710    3  0.0007   10  0.7649   11  0.5710
   11  0.0007   12  0.7956   13  0.0002   14  0.0002   15  0.0091   18  0.0091
   23  0.0035   23  0.0022   23  0.0045   24  0.0022   24  0.0035   24  0.0045
  23    1  0.7956    2  0.5710    2  0.0007    3  0.7649   10  0.7956   11  0.7649
   12  0.5710   12  0.0007   13  0.0002   14  0.0002   15  0.0091   18  0.0091
   22  0.0035   22  0.0022   22  0.0045   24  0.0022   24  0.0045   24  0.0035
  24    1  0.0007    1  0.5710    2  0.7649    3  0.7956   10  0.0007   10  0.5710
   11  0.7956   12  0.7649   13  0.0002   14  0.0002   15  0.0091   18  0.0091
   22  0.0022   22  0.0035   22  0.0045   23  0.0022   23  0.0045   23  0.0035

  ReaxFF: Bond Order pi prime:

   1    2  0.0000    2  0.0000    2  0.0000    3  0.0000    3  0.0000    3  0.0000
    4  0.0000   10  0.0000   14  0.0000   15  0.0000   15  0.0000   16  0.0000
   22  0.0000   23  0.0000   24  0.0000   24  0.0000
   2    1  0.0000    1  0.0000    1  0.0000    3  0.0000    3  0.0000    3  0.0000
    6  0.0000   12  0.0000   14  0.0000   15  0.0000   15  0.0000   16  0.0000
   22  0.0000   23  0.0000   23  0.0000   24  0.0000
   3    1  0.0000    1  0.0000    1  0.0000    2  0.0000    2  0.0000    2  0.0000
    5  0.0000   11  0.0000   14  0.0000   15  0.0000   15  0.0000   16  0.0000
   22  0.0000   22  0.0000   23  0.0000   24  0.0000
   4    1  0.0000    5  0.0000    5  0.0000    5  0.0000    6  0.0000    6  0.0000
    6  0.0000    9  0.0000   14  0.0000   15  0.0000   16  0.0000   16  0.0000
   19  0.0000   20  0.0000   21  0.0000   21  0.0000
   5    3  0.0000    4  0.0000    4  0.0000    4  0.0000    6  0.0000    6  0.0000
    6  0.0000    8  0.0000   14  0.0000   15  0.0000   16  0.0000   16  0.0000
   19  0.0000   20  0.0000   20  0.0000   21  0.0000
   6    2  0.0000    4  0.0000    4  0.0000    4  0.0000    5  0.0000    5  0.0000
    5  0.0000    7  0.0000   14  0.0000   15  0.0000   16  0.0000   16  0.0000
   19  0.0000   19  0.0000   20  0.0000   21  0.0000
   7    6  0.0000    8  0.0000    8  0.0000    8  0.0000    9  0.0000    9  0.0000
    9  0.0000   12  0.0000   13  0.0000   17  0.0000   17  0.0000   18  0.0000
   19  0.0000   19  0.0000   20  0.0000   21  0.0000
   8    5  0.0000    7  0.0000    7  0.0000    7  0.0000    9  0.0000    9  0.0000
    9  0.0000   11  0.0000   13  0.0000   17  0.0000   17  0.0000   18  0.0000
   19  0.0000   20  0.0000   20  0.0000   21  0.0000
   9    4  0.0000    7  0.0000    7  0.0000    7  0.0000    8  0.0000    8  0.0000
    8  0.0000   10  0.0000   13  0.0000   17  0.0000   17  0.0000   18  0.0000
   19  0.0000   20  0.0000   21  0.0000   21  0.0000
  10    1  0.0000    9  0.0000   11  0.0000   11  0.0000   11  0.0000   12  0.0000
   12  0.0000   12  0.0000   13  0.0000   17  0.0000   18  0.0000   18  0.0000
   22  0.0000   23  0.0000   24  0.0000   24  0.0000
  11    3  0.0000    8  0.0000   10  0.0000   10  0.0000   10  0.0000   12  0.0000
   12  0.0000   12  0.0000   13  0.0000   17  0.0000   18  0.0000   18  0.0000
   22  0.0000   22  0.0000   23  0.0000   24  0.0000
  12    2  0.0000    7  0.0000   10  0.0000   10  0.0000   10  0.0000   11  0.0000
   11  0.0000   11  0.0000   13  0.0000   17  0.0000   18  0.0000   18  0.0000
   22  0.0000   23  0.0000   23  0.0000   24  0.0000
  13    7  0.0000    8  0.0000    9  0.0000   10  0.0000   11  0.0000   12  0.0000
   17  0.0000   17  0.0000   17  0.0000   18  0.0000   18  0.0000   18  0.0000
   19  0.0000   20  0.0000   21  0.0000   22  0.0000   23  0.0000   24  0.0000
  14    1  0.0000    2  0.0000    3  0.0000    4  0.0000    5  0.0000    6  0.0000
   15  0.0000   15  0.0000   15  0.0000   16  0.0000   16  0.0000   16  0.0000
   19  0.0000   20  0.0000   21  0.0000   22  0.0000   23  0.0000   24  0.0000
  15    1  0.0000    1  0.0000    2  0.0000    2  0.0000    3  0.0000    3  0.0000
    4  0.0000    5  0.0000    6  0.0000   14  0.0000   14  0.0000   14  0.0000
   16  0.0000   16  0.0000   16  0.0000   22  0.0000   23  0.0000   24  0.0000
  16    1  0.0000    2  0.0000    3  0.0000    4  0.0000    4  0.0000    5  0.0000
    5  0.0000    6  0.0000    6  0.0000   14  0.0000   14  0.0000   14  0.0000
   15  0.0000   15  0.0000   15  0.0000   19  0.0000   20  0.0000   21  0.0000
  17    7  0.0000    7  0.0000    8  0.0000    8  0.0000    9  0.0000    9  0.0000
   10  0.0000   11  0.0000   12  0.0000   13  0.0000   13  0.0000   13  0.0000
   18  0.0000   18  0.0000   18  0.0000   19  0.0000   20  0.0000   21  0.0000
  18    7  0.0000    8  0.0000    9  0.0000   10  0.0000   10  0.0000   11  0.0000
   11  0.0000   12  0.0000   12  0.0000   13  0.0000   13  0.0000   13  0.0000
   17  0.0000   17  0.0000   17  0.0000   22  0.0000   23  0.0000   24  0.0000
  19    4  0.0000    5  0.0000    6  0.0000    6  0.0000    7  0.0000    7  0.0000
    8  0.0000    9  0.0000   13  0.0000   14  0.0000   16  0.0000   17  0.0000
   20  0.0000   20  0.0000   20  0.0000   21  0.0000   21  0.0000   21  0.0000
  20    4  0.0000    5  0.0000    5  0.0000    6  0.0000    7  0.0000    8  0.0000
    8  0.0000    9  0.0000   13  0.0000   14  0.0000   16  0.0000   17  0.0000
   19  0.0000   19  0.0000   19  0.0000   21  0.0000   21  0.0000   21  0.0000
  21    4  0.0000    4  0.0000    5  0.0000    6  0.0000    7  0.0000    8  0.0000
    9  0.0000    9  0.0000   13  0.0000   14  0.0000   16  0.0000   17  0.0000
   19  0.0000   19  0.0000   19  0.0000   20  0.0000   20  0.0000   20  0.0000
  22    1  0.0000    2  0.0000    3  0.0000    3  0.0000   10  0.0000   11  0.0000
   11  0.0000   12  0.0000   13  0.0000   14  0.0000   15  0.0000   18  0.0000
   23  0.0000   23  0.0000   23  0.0000   24  0.0000   24  0.0000   24  0.0000
  23    1  0.0000    2  0.0000    2  0.0000    3  0.0000   10  0.0000   11  0.0000
   12  0.0000   12  0.0000   13  0.0000   14  0.0000   15  0.0000   18  0.0000
   22  0.0000   22  0.0000   22  0.0000   24  0.0000   24  0.0000   24  0.0000
  24    1  0.0000    1  0.0000    2  0.0000    3  0.0000   10  0.0000   10  0.0000
   11  0.0000   12  0.0000   13  0.0000   14  0.0000   15  0.0000   18  0.0000
   22  0.0000   22  0.0000   22  0.0000   23  0.0000   23  0.0000   23  0.0000

  ReaxFF: Bond Order pi-pi prime:

   1    2  0.0000    2  0.0000    2  0.0000    3  0.0000    3  0.0000    3  0.0000
    4  0.0000   10  0.0000   14  0.0000   15  0.0000   15  0.0000   16  0.0000
   22  0.0000   23  0.0000   24  0.0000   24  0.0000
   2    1  0.0000    1  0.0000    1  0.0000    3  0.0000    3  0.0000    3  0.0000
    6  0.0000   12  0.0000   14  0.0000   15  0.0000   15  0.0000   16  0.0000
   22  0.0000   23  0.0000   23  0.0000   24  0.0000
   3    1  0.0000    1  0.0000    1  0.0000    2  0.0000    2  0.0000    2  0.0000
    5  0.0000   11  0.0000   14  0.0000   15  0.0000   15  0.0000   16  0.0000
   22  0.0000   22  0.0000   23  0.0000   24  0.0000
   4    1  0.0000    5  0.0000    5  0.0000    5  0.0000    6  0.0000    6  0.0000
    6  0.0000    9  0.0000   14  0.0000   15  0.0000   16  0.0000   16  0.0000
   19  0.0000   20  0.0000   21  0.0000   21  0.0000
   5    3  0.0000    4  0.0000    4  0.0000    4  0.0000    6  0.0000    6  0.0000
    6  0.0000    8  0.0000   14  0.0000   15  0.0000   16  0.0000   16  0.0000
   19  0.0000   20  0.0000   20  0.0000   21  0.0000
   6    2  0.0000    4  0.0000    4  0.0000    4  0.0000    5  0.0000    5  0.0000
    5  0.0000    7  0.0000   14  0.0000   15  0.0000   16  0.0000   16  0.0000
   19  0.0000   19  0.0000   20  0.0000   21  0.0000
   7    6  0.0000    8  0.0000    8  0.0000    8  0.0000    9  0.0000    9  0.0000
    9  0.0000   12  0.0000   13  0.0000   17  0.0000   17  0.0000   18  0.0000
   19  0.0000   19  0.0000   20  0.0000   21  0.0000
   8    5  0.0000    7  0.0000    7  0.0000    7  0.0000    9  0.0000    9  0.0000
    9  0.0000   11  0.0000   13  0.0000   17  0.0000   17  0.0000   18  0.0000
   19  0.0000   20  0.0000   20  0.0000   21  0.0000
   9    4  0.0000    7  0.0000    7  0.0000    7  0.0000    8  0.0000    8  0.0000
    8  0.0000   10  0.0000   13  0.0000   17  0.0000   17  0.0000   18  0.0000
   19  0.0000   20  0.0000   21  0.0000   21  0.0000
  10    1  0.0000    9  0.0000   11  0.0000   11  0.0000   11  0.0000   12  0.0000
   12  0.0000   12  0.0000   13  0.0000   17  0.0000   18  0.0000   18  0.0000
   22  0.0000   23  0.0000   24  0.0000   24  0.0000
  11    3  0.0000    8  0.0000   10  0.0000   10  0.0000   10  0.0000   12  0.0000
   12  0.0000   12  0.0000   13  0.0000   17  0.0000   18  0.0000   18  0.0000
   22  0.0000   22  0.0000   23  0.0000   24  0.0000
  12    2  0.0000    7  0.0000   10  0.0000   10  0.0000   10  0.0000   11  0.0000
   11  0.0000   11  0.0000   13  0.0000   17  0.0000   18  0.0000   18  0.0000
   22  0.0000   23  0.0000   23  0.0000   24  0.0000
  13    7  0.0000    8  0.0000    9  0.0000   10  0.0000   11  0.0000   12  0.0000
   17  0.0000   17  0.0000   17  0.0000   18  0.0000   18  0.0000   18  0.0000
   19  0.0000   20  0.0000   21  0.0000   22  0.0000   23  0.0000   24  0.0000
  14    1  0.0000    2  0.0000    3  0.0000    4  0.0000    5  0.0000    6  0.0000
   15  0.0000   15  0.0000   15  0.0000   16  0.0000   16  0.0000   16  0.0000
   19  0.0000   20  0.0000   21  0.0000   22  0.0000   23  0.0000   24  0.0000
  15    1  0.0000    1  0.0000    2  0.0000    2  0.0000    3  0.0000    3  0.0000
    4  0.0000    5  0.0000    6  0.0000   14  0.0000   14  0.0000   14  0.0000
   16  0.0000   16  0.0000   16  0.0000   22  0.0000   23  0.0000   24  0.0000
  16    1  0.0000    2  0.0000    3  0.0000    4  0.0000    4  0.0000    5  0.0000
    5  0.0000    6  0.0000    6  0.0000   14  0.0000   14  0.0000   14  0.0000
   15  0.0000   15  0.0000   15  0.0000   19  0.0000   20  0.0000   21  0.0000
  17    7  0.0000    7  0.0000    8  0.0000    8  0.0000    9  0.0000    9  0.0000
   10  0.0000   11  0.0000   12  0.0000   13  0.0000   13  0.0000   13  0.0000
   18  0.0000   18  0.0000   18  0.0000   19  0.0000   20  0.0000   21  0.0000
  18    7  0.0000    8  0.0000    9  0.0000   10  0.0000   10  0.0000   11  0.0000
   11  0.0000   12  0.0000   12  0.0000   13  0.0000   13  0.0000   13  0.0000
   17  0.0000   17  0.0000   17  0.0000   22  0.0000   23  0.0000   24  0.0000
  19    4  0.0000    5  0.0000    6  0.0000    6  0.0000    7  0.0000    7  0.0000
    8  0.0000    9  0.0000   13  0.0000   14  0.0000   16  0.0000   17  0.0000
   20  0.0000   20  0.0000   20  0.0000   21  0.0000   21  0.0000   21  0.0000
  20    4  0.0000    5  0.0000    5  0.0000    6  0.0000    7  0.0000    8  0.0000
    8  0.0000    9  0.0000   13  0.0000   14  0.0000   16  0.0000   17  0.0000
   19  0.0000   19  0.0000   19  0.0000   21  0.0000   21  0.0000   21  0.0000
  21    4  0.0000    4  0.0000    5  0.0000    6  0.0000    7  0.0000    8  0.0000
    9  0.0000    9  0.0000   13  0.0000   14  0.0000   16  0.0000   17  0.0000
   19  0.0000   19  0.0000   19  0.0000   20  0.0000   20  0.0000   20  0.0000
  22    1  0.0000    2  0.0000    3  0.0000    3  0.0000   10  0.0000   11  0.0000
   11  0.0000   12  0.0000   13  0.0000   14  0.0000   15  0.0000   18  0.0000
   23  0.0000   23  0.0000   23  0.0000   24  0.0000   24  0.0000   24  0.0000
  23    1  0.0000    2  0.0000    2  0.0000    3  0.0000   10  0.0000   11  0.0000
   12  0.0000   12  0.0000   13  0.0000   14  0.0000   15  0.0000   18  0.0000
   22  0.0000   22  0.0000   22  0.0000   24  0.0000   24  0.0000   24  0.0000
  24    1  0.0000    1  0.0000    2  0.0000    3  0.0000   10  0.0000   10  0.0000
   11  0.0000   12  0.0000   13  0.0000   14  0.0000   15  0.0000   18  0.0000
   22  0.0000   22  0.0000   22  0.0000   23  0.0000   23  0.0000   23  0.0000



  ReaxFF: Delta and Bond Order:

   1  2.810136    2  0.3849    2  0.0109    2  0.0026    3  0.3849    3  0.0026    3  0.0109
    4  0.3653   10  0.3336   14  0.6798   15  0.0008   15  0.7162   16  0.7852
   22  0.7649   23  0.7956   24  0.0007   24  0.5710
   2  2.810136    1  0.3849    1  0.0109    1  0.0026    3  0.0026    3  0.3849    3  0.0109
    6  0.3653   12  0.3336   14  0.6798   15  0.7162   15  0.0008   16  0.7852
   22  0.7956   23  0.5710   23  0.0007   24  0.7649
   3  2.810135    1  0.3849    1  0.0026    1  0.0109    2  0.0026    2  0.3849    2  0.0109
    5  0.3653   11  0.3336   14  0.6798   15  0.0008   15  0.7162   16  0.7852
   22  0.5710   22  0.0007   23  0.7649   24  0.7956
   4  2.810136    1  0.3653    5  0.0026    5  0.3849    5  0.0109    6  0.0026    6  0.0109
    6  0.3849    9  0.3336   14  0.6798   15  0.7852   16  0.7162   16  0.0008
   19  0.7649   20  0.7956   21  0.5710   21  0.0007
   5  2.810136    3  0.3653    4  0.0026    4  0.3849    4  0.0109    6  0.0109    6  0.0026
    6  0.3849    8  0.3336   14  0.6798   15  0.7852   16  0.0008   16  0.7162
   19  0.7956   20  0.5710   20  0.0007   21  0.7649
   6  2.810135    2  0.3653    4  0.0026    4  0.0109    4  0.3849    5  0.0109    5  0.0026
    5  0.3849    7  0.3336   14  0.6798   15  0.7852   16  0.0008   16  0.7162
   19  0.0007   19  0.5710   20  0.7649   21  0.7956
   7  2.810136    6  0.3336    8  0.3849    8  0.0026    8  0.0109    9  0.3849    9  0.0109
    9  0.0026   12  0.3653   13  0.6798   17  0.0008   17  0.7162   18  0.7852
   19  0.0007   19  0.5710   20  0.7649   21  0.7956
   8  2.810135    5  0.3336    7  0.3849    7  0.0026    7  0.0109    9  0.0109    9  0.3849
    9  0.0026   11  0.3653   13  0.6798   17  0.0008   17  0.7162   18  0.7852
   19  0.7956   20  0.5710   20  0.0007   21  0.7649
   9  2.810136    4  0.3336    7  0.3849    7  0.0109    7  0.0026    8  0.0109    8  0.3849
    8  0.0026   10  0.3653   13  0.6798   17  0.7162   17  0.0008   18  0.7852
   19  0.7649   20  0.7956   21  0.5710   21  0.0007
  10  2.810136    1  0.3336    9  0.3653   11  0.3849   11  0.0026   11  0.0109   12  0.3849
   12  0.0109   12  0.0026   13  0.6798   17  0.7852   18  0.0008   18  0.7162
   22  0.7649   23  0.7956   24  0.0007   24  0.5710
  11  2.810135    3  0.3336    8  0.3653   10  0.3849   10  0.0026   10  0.0109   12  0.0109
   12  0.3849   12  0.0026   13  0.6798   17  0.7852   18  0.0008   18  0.7162
   22  0.5710   22  0.0007   23  0.7649   24  0.7956
  12  2.810136    2  0.3336    7  0.3653   10  0.3849   10  0.0109   10  0.0026   11  0.0109
   11  0.3849   11  0.0026   13  0.6798   17  0.7852   18  0.7162   18  0.0008
   22  0.7956   23  0.5710   23  0.0007   24  0.7649
  13  2.087859    7  0.6798    8  0.6798    9  0.6798   10  0.6798   11  0.6798   12  0.6798
   17  0.0014   17  0.0014   17  0.0014   18  0.0014   18  0.0014   18  0.0014
   19  0.0001   20  0.0001   21  0.0001   22  0.0001   23  0.0001   24  0.0001
  14  2.087859    1  0.6798    2  0.6798    3  0.6798    4  0.6798    5  0.6798    6  0.6798
   15  0.0014   15  0.0014   15  0.0014   16  0.0014   16  0.0014   16  0.0014
   19  0.0001   20  0.0001   21  0.0001   22  0.0001   23  0.0001   24  0.0001
  15  2.526163    1  0.0008    1  0.7162    2  0.7162    2  0.0008    3  0.0008    3  0.7162
    4  0.7852    5  0.7852    6  0.7852   14  0.0014   14  0.0014   14  0.0014
   16  0.0009   16  0.0009   16  0.0009   22  0.0042   23  0.0042   24  0.0042
  16  2.526163    1  0.7852    2  0.7852    3  0.7852    4  0.7162    4  0.0008    5  0.0008
    5  0.7162    6  0.0008    6  0.7162   14  0.0014   14  0.0014   14  0.0014
   15  0.0009   15  0.0009   15  0.0009   19  0.0042   20  0.0042   21  0.0042
  17  2.526163    7  0.0008    7  0.7162    8  0.0008    8  0.7162    9  0.7162    9  0.0008
   10  0.7852   11  0.7852   12  0.7852   13  0.0014   13  0.0014   13  0.0014
   18  0.0009   18  0.0009   18  0.0009   19  0.0042   20  0.0042   21  0.0042
  18  2.526163    7  0.7852    8  0.7852    9  0.7852   10  0.0008   10  0.7162   11  0.0008
   11  0.7162   12  0.7162   12  0.0008   13  0.0014   13  0.0014   13  0.0014
   17  0.0009   17  0.0009   17  0.0009   22  0.0042   23  0.0042   24  0.0042
  19  2.282331    4  0.7649    5  0.7956    6  0.0007    6  0.5710    7  0.0007    7  0.5710
    8  0.7956    9  0.7649   13  0.0001   14  0.0001   16  0.0042   17  0.0042
   20  0.0021   20  0.0016   20  0.0010   21  0.0016   21  0.0021   21  0.0010
  20  2.282331    4  0.7956    5  0.5710    5  0.0007    6  0.7649    7  0.7649    8  0.5710
    8  0.0007    9  0.7956   13  0.0001   14  0.0001   16  0.0042   17  0.0042
   19  0.0021   19  0.0016   19  0.0010   21  0.0016   21  0.0010   21  0.0021
  21  2.282331    4  0.5710    4  0.0007    5  0.7649    6  0.7956    7  0.7956    8  0.7649
    9  0.5710    9  0.0007   13  0.0001   14  0.0001   16  0.0042   17  0.0042
   19  0.0016   19  0.0021   19  0.0010   20  0.0016   20  0.0010   20  0.0021
  22  2.282331    1  0.7649    2  0.7956    3  0.5710    3  0.0007   10  0.7649   11  0.5710
   11  0.0007   12  0.7956   13  0.0001   14  0.0001   15  0.0042   18  0.0042
   23  0.0016   23  0.0010   23  0.0021   24  0.0010   24  0.0016   24  0.0021
  23  2.282331    1  0.7956    2  0.5710    2  0.0007    3  0.7649   10  0.7956   11  0.7649
   12  0.5710   12  0.0007   13  0.0001   14  0.0001   15  0.0042   18  0.0042
   22  0.0016   22  0.0010   22  0.0021   24  0.0010   24  0.0021   24  0.0016
  24  2.282331    1  0.0007    1  0.5710    2  0.7649    3  0.7956   10  0.0007   10  0.5710
   11  0.7956   12  0.7649   13  0.0001   14  0.0001   15  0.0042   18  0.0042
   22  0.0010   22  0.0016   22  0.0021   23  0.0010   23  0.0021   23  0.0016

  ReaxFF: Delta lone pair:

   1  1.000000
   2  1.000000
   3  1.000000
   4  1.000000
   5  1.000000
   6  1.000000
   7  1.000000
   8  1.000000
   9  1.000000
  10  1.000000
  11  1.000000
  12  1.000000
  13  1.045916
  14  1.045916
  15  1.814695
  16  1.814695
  17  1.814695
  18  1.814695
  19  1.384529
  20  1.384529
  21  1.384529
  22  1.384529
  23  1.384529
  24  1.384529


  ReaxFF : Energy contributions:

  E(bond)     =    -181.37358419 eV =    -4182.5474009 kcal
  E(bpen)     =       0.00000000 eV =        0.0000000 kcal
  E(lonepair) =       2.67955961 eV =       61.7917164 kcal
  E(over)     =      34.87975471 eV =      804.3410954 kcal
  E(under)    =       0.00000000 eV =        0.0000000 kcal
  E(val)      =      48.57349994 eV =     1120.1243380 kcal
  E(pen)      =       0.00000000 eV =        0.0000000 kcal
  E(coa)      =       0.00000000 eV =        0.0000000 kcal
  E(tors)     =       0.00000000 eV =        0.0000000 kcal
  E(conj)     =       0.00000000 eV =        0.0000000 kcal
  E(hb)       =       0.00000000 eV =        0.0000000 kcal
  E(vdw)      =       5.95158965 eV =      137.2460379 kcal
  E(coulomb)  =      -7.32174748 eV =     -168.8424257 kcal
  E(self)     =      -0.33495950 eV =       -7.7243001 kcal

  Components of energy :

--------------------------------------------------------------------------------
  Interatomic potentials     =           0.00000000 eV
  ReaxFF force field         =         -96.94588727 eV
  Monopole - monopole (real) =           0.00000000 eV
  Monopole - monopole (recip)=           0.00000000 eV
  Monopole - monopole (total)=           0.00000000 eV
--------------------------------------------------------------------------------
  Total lattice energy       =         -96.94588727 eV
--------------------------------------------------------------------------------
  Total lattice energy       =           -9353.7962 kJ/(mole unit cells)
--------------------------------------------------------------------------------

  XYZ File written as no_optimisation.xyz



  Final charges from ReaxFF :

--------------------------------------------------------------------------------
    Atom no.            Atomic No.             Charge
--------------------------------------------------------------------------------
         1                  26                 0.2660796
         2                  26                 0.2660796
         3                  26                 0.2660796
         4                  26                 0.2660796
         5                  26                 0.2660796
         6                  26                 0.2660796
         7                  26                 0.2660796
         8                  26                 0.2660796
         9                  26                 0.2660796
        10                  26                 0.2660796
        11                  26                 0.2660796
        12                  26                 0.2660796
        13                  16                -0.2589480
        14                  16                -0.2589480
        15                  16                -0.2713112
        16                  16                -0.2713112
        17                  16                -0.2713112
        18                  16                -0.2713112
        19                  16                -0.2649691
        20                  16                -0.2649691
        21                  16                -0.2649691
        22                  16                -0.2649691
        23                  16                -0.2649691
        24                  16                -0.2649691
--------------------------------------------------------------------------------


  Peak dynamic memory used =       0.56 MB


  Timing analysis for GULP :

--------------------------------------------------------------------------------
  Task / Subroutine                                          Time (Seconds)
--------------------------------------------------------------------------------
  Calculation of reaxFF energy and derivatives                    0.0052
  Electronegativity equalisation                                  0.0028
  Symmetry generation of equivalent positions                     0.0006
--------------------------------------------------------------------------------
  Total CPU time                                                  0.0118
--------------------------------------------------------------------------------


  CIF file written as no_optimisation.cif


  Job Finished at 08:34.20 25th April      2017

