Defaulting to ethernet
MPI Process pinning:
	I_MPI_PIN=yes
	I_MPI_PIN_MODE=lib
	I_MPI_PIN_PROCESSOR_LIST=spread
	I_MPI_PIN_DOMAIN=
	I_MPI_PIN_ORDER=
OMP Thread Affinity:
	KMP_AFFINITY=
Starting MPD ring...
/opt/pbs/default/bin/pbs_tmrsh cx1-132-3-20.cx1.hpc.ic.ac.uk -n /opt/pbs/default/bin/pbs_attach -j 388899.cx1 /apps/intel/impi/5.1.1.109/compilers_and_libraries_2016.0.109/linux/mpi/bin/mpd -n -h cx1-132-3-20 -p 37944 --ncpus=1 -e -d
/opt/pbs/default/bin/pbs_tmrsh cx1-132-3-7.cx1.hpc.ic.ac.uk -n /opt/pbs/default/bin/pbs_attach -j 388899.cx1 /apps/intel/impi/5.1.1.109/compilers_and_libraries_2016.0.109/linux/mpi/bin/mpd -n -h cx1-132-3-20 -p 37944 --ncpus=1 -e -d
PBS has allocated the following nodes:
cx1-132-3-20
cx1-132-3-20
cx1-132-3-20
cx1-132-3-20
cx1-132-3-20
cx1-132-3-20
cx1-132-3-20
cx1-132-3-20
cx1-132-3-20
cx1-132-3-20
cx1-132-3-20
cx1-132-3-20
cx1-132-3-20
cx1-132-3-20
cx1-132-3-20
cx1-132-3-20
cx1-132-3-7
cx1-132-3-7
cx1-132-3-7
cx1-132-3-7
cx1-132-3-7
cx1-132-3-7
cx1-132-3-7
cx1-132-3-7
cx1-132-3-7
cx1-132-3-7
cx1-132-3-7
cx1-132-3-7
cx1-132-3-7
cx1-132-3-7
cx1-132-3-7
cx1-132-3-7
---
mpiexec.intel -genv I_MPI_DEVICE ssm -genv I_MPI_DEBUG 0 -genv I_MPI_FALLBACK_DEVICE disable -genv DAPL_MAX_CM_RETRIES 500 -genv DAPL_MAX_CM_RESPONSE_TIME 300 -genv I_MPI_DAPL_CONNECTION_TIMEOUT 300 -genv I_MPI_PIN yes -genv I_MPI_PIN_MODE lib -genv I_MPI_PIN_PROCESSOR_LIST spread -machinefile /var/tmp/pbs.388899.cx1/tmp.cinXJveo4M -n 32 -wdir /var/tmp/pbs.388899.cx1 projwfc.x -npools 4 -i fe_bcc_fm.pdos.in

Job output begins below
-----------------------

     Program PROJWFC v.5.3.0 (svn rev. 11974) starts on 27Oct2017 at  4:27:26 

     This program is part of the open-source Quantum ESPRESSO suite
     for quantum simulation of materials; please cite
         "P. Giannozzi et al., J. Phys.:Condens. Matter 21 395502 (2009);
          URL http://www.quantum-espresso.org", 
     in publications or presentations arising from this work. More details at
     http://www.quantum-espresso.org/quote

     Parallel version (MPI & OpenMP), running on      32 processor cores
     Number of MPI processes:                32
     Threads/MPI process:                     1
     K-points division:     npool     =       4
     R & G space division:  proc/nbgrp/npool/nimage =       8

     Reading data from directory:
     ./fe_bcc_surf.save

   Info: using nr1, nr2, nr3 values from input

   Info: using nr1, nr2, nr3 values from input

     IMPORTANT: XC functional enforced from input :
     Exchange-correlation      =  SLA  PW   PBX  PBC ( 1  4  3  4 0 0)
     Any further DFT definition will be discarded
     Please, verify this is what you really want

     Message from routine readpp:
     file ./fe_bcc_surf.save/Fe.pbe-spn-kjpaw_psl.0.2.1.UPF not found
               file Fe.pbe-spn-kjpaw_psl.0.2.1.UPF: wavefunction(s)  3D renormalized
     Message from routine readpp:
     file ./fe_bcc_surf.save/S.pbe-n-kjpaw_psl.0.1.UPF not found
               file S.pbe-n-kjpaw_psl.0.1.UPF: wavefunction(s)  3P renormalized
     Message from routine readpp:
     file ./fe_bcc_surf.save/S.pbe-n-kjpaw_psl.0.1.UPF not found
               file S.pbe-n-kjpaw_psl.0.1.UPF: wavefunction(s)  3P renormalized
     Message from routine readpp:
     file ./fe_bcc_surf.save/S.pbe-n-kjpaw_psl.0.1.UPF not found
               file S.pbe-n-kjpaw_psl.0.1.UPF: wavefunction(s)  3P renormalized
     Message from routine readpp:
     file ./fe_bcc_surf.save/S.pbe-n-kjpaw_psl.0.1.UPF not found
               file S.pbe-n-kjpaw_psl.0.1.UPF: wavefunction(s)  3P renormalized
 
     Parallelization info
     --------------------
     sticks:   dense  smooth     PW     G-vecs:    dense   smooth      PW
     Min         644     305     86               161002    52680    7746
     Max         646     306     87               161005    52724    7754
     Sum        5161    2447    689              1288027   421661   61997
 
     Generating pointlists ...
     new r_m :   0.1699 (alat units)  1.8185 (a.u.) for type    1
     new r_m :   0.1699 (alat units)  1.8185 (a.u.) for type    2
     new r_m :   0.1699 (alat units)  1.8185 (a.u.) for type    3
     new r_m :   0.1699 (alat units)  1.8185 (a.u.) for type    4
     new r_m :   0.1699 (alat units)  1.8185 (a.u.) for type    5

     Check: negative/imaginary core charge=   -0.000011    0.000000

     negative rho (up, down):  6.383E-05 7.887E-04

     Gaussian broadening (read from input): ngauss,degauss=   0    0.010000


     Calling projwave .... 

     Atomic states used for projection
     (read from pseudopotential files):

     state #   1: atom   1 (Fe ), wfc  1 (l=0 m= 1)
     state #   2: atom   1 (Fe ), wfc  2 (l=0 m= 1)
     state #   3: atom   1 (Fe ), wfc  3 (l=1 m= 1)
     state #   4: atom   1 (Fe ), wfc  3 (l=1 m= 2)
     state #   5: atom   1 (Fe ), wfc  3 (l=1 m= 3)
     state #   6: atom   1 (Fe ), wfc  4 (l=1 m= 1)
     state #   7: atom   1 (Fe ), wfc  4 (l=1 m= 2)
     state #   8: atom   1 (Fe ), wfc  4 (l=1 m= 3)
     state #   9: atom   1 (Fe ), wfc  5 (l=2 m= 1)
     state #  10: atom   1 (Fe ), wfc  5 (l=2 m= 2)
     state #  11: atom   1 (Fe ), wfc  5 (l=2 m= 3)
     state #  12: atom   1 (Fe ), wfc  5 (l=2 m= 4)
     state #  13: atom   1 (Fe ), wfc  5 (l=2 m= 5)
     state #  14: atom   2 (Fe ), wfc  1 (l=0 m= 1)
     state #  15: atom   2 (Fe ), wfc  2 (l=0 m= 1)
     state #  16: atom   2 (Fe ), wfc  3 (l=1 m= 1)
     state #  17: atom   2 (Fe ), wfc  3 (l=1 m= 2)
     state #  18: atom   2 (Fe ), wfc  3 (l=1 m= 3)
     state #  19: atom   2 (Fe ), wfc  4 (l=1 m= 1)
     state #  20: atom   2 (Fe ), wfc  4 (l=1 m= 2)
     state #  21: atom   2 (Fe ), wfc  4 (l=1 m= 3)
     state #  22: atom   2 (Fe ), wfc  5 (l=2 m= 1)
     state #  23: atom   2 (Fe ), wfc  5 (l=2 m= 2)
     state #  24: atom   2 (Fe ), wfc  5 (l=2 m= 3)
     state #  25: atom   2 (Fe ), wfc  5 (l=2 m= 4)
     state #  26: atom   2 (Fe ), wfc  5 (l=2 m= 5)
     state #  27: atom   3 (Fe ), wfc  1 (l=0 m= 1)
     state #  28: atom   3 (Fe ), wfc  2 (l=0 m= 1)
     state #  29: atom   3 (Fe ), wfc  3 (l=1 m= 1)
     state #  30: atom   3 (Fe ), wfc  3 (l=1 m= 2)
     state #  31: atom   3 (Fe ), wfc  3 (l=1 m= 3)
     state #  32: atom   3 (Fe ), wfc  4 (l=1 m= 1)
     state #  33: atom   3 (Fe ), wfc  4 (l=1 m= 2)
     state #  34: atom   3 (Fe ), wfc  4 (l=1 m= 3)
     state #  35: atom   3 (Fe ), wfc  5 (l=2 m= 1)
     state #  36: atom   3 (Fe ), wfc  5 (l=2 m= 2)
     state #  37: atom   3 (Fe ), wfc  5 (l=2 m= 3)
     state #  38: atom   3 (Fe ), wfc  5 (l=2 m= 4)
     state #  39: atom   3 (Fe ), wfc  5 (l=2 m= 5)
     state #  40: atom   4 (Fe ), wfc  1 (l=0 m= 1)
     state #  41: atom   4 (Fe ), wfc  2 (l=0 m= 1)
     state #  42: atom   4 (Fe ), wfc  3 (l=1 m= 1)
     state #  43: atom   4 (Fe ), wfc  3 (l=1 m= 2)
     state #  44: atom   4 (Fe ), wfc  3 (l=1 m= 3)
     state #  45: atom   4 (Fe ), wfc  4 (l=1 m= 1)
     state #  46: atom   4 (Fe ), wfc  4 (l=1 m= 2)
     state #  47: atom   4 (Fe ), wfc  4 (l=1 m= 3)
     state #  48: atom   4 (Fe ), wfc  5 (l=2 m= 1)
     state #  49: atom   4 (Fe ), wfc  5 (l=2 m= 2)
     state #  50: atom   4 (Fe ), wfc  5 (l=2 m= 3)
     state #  51: atom   4 (Fe ), wfc  5 (l=2 m= 4)
     state #  52: atom   4 (Fe ), wfc  5 (l=2 m= 5)
     state #  53: atom   5 (Fe ), wfc  1 (l=0 m= 1)
     state #  54: atom   5 (Fe ), wfc  2 (l=0 m= 1)
     state #  55: atom   5 (Fe ), wfc  3 (l=1 m= 1)
     state #  56: atom   5 (Fe ), wfc  3 (l=1 m= 2)
     state #  57: atom   5 (Fe ), wfc  3 (l=1 m= 3)
     state #  58: atom   5 (Fe ), wfc  4 (l=1 m= 1)
     state #  59: atom   5 (Fe ), wfc  4 (l=1 m= 2)
     state #  60: atom   5 (Fe ), wfc  4 (l=1 m= 3)
     state #  61: atom   5 (Fe ), wfc  5 (l=2 m= 1)
     state #  62: atom   5 (Fe ), wfc  5 (l=2 m= 2)
     state #  63: atom   5 (Fe ), wfc  5 (l=2 m= 3)
     state #  64: atom   5 (Fe ), wfc  5 (l=2 m= 4)
     state #  65: atom   5 (Fe ), wfc  5 (l=2 m= 5)
     state #  66: atom   6 (Fe ), wfc  1 (l=0 m= 1)
     state #  67: atom   6 (Fe ), wfc  2 (l=0 m= 1)
     state #  68: atom   6 (Fe ), wfc  3 (l=1 m= 1)
     state #  69: atom   6 (Fe ), wfc  3 (l=1 m= 2)
     state #  70: atom   6 (Fe ), wfc  3 (l=1 m= 3)
     state #  71: atom   6 (Fe ), wfc  4 (l=1 m= 1)
     state #  72: atom   6 (Fe ), wfc  4 (l=1 m= 2)
     state #  73: atom   6 (Fe ), wfc  4 (l=1 m= 3)
     state #  74: atom   6 (Fe ), wfc  5 (l=2 m= 1)
     state #  75: atom   6 (Fe ), wfc  5 (l=2 m= 2)
     state #  76: atom   6 (Fe ), wfc  5 (l=2 m= 3)
     state #  77: atom   6 (Fe ), wfc  5 (l=2 m= 4)
     state #  78: atom   6 (Fe ), wfc  5 (l=2 m= 5)
     state #  79: atom   7 (Fe ), wfc  1 (l=0 m= 1)
     state #  80: atom   7 (Fe ), wfc  2 (l=0 m= 1)
     state #  81: atom   7 (Fe ), wfc  3 (l=1 m= 1)
     state #  82: atom   7 (Fe ), wfc  3 (l=1 m= 2)
     state #  83: atom   7 (Fe ), wfc  3 (l=1 m= 3)
     state #  84: atom   7 (Fe ), wfc  4 (l=1 m= 1)
     state #  85: atom   7 (Fe ), wfc  4 (l=1 m= 2)
     state #  86: atom   7 (Fe ), wfc  4 (l=1 m= 3)
     state #  87: atom   7 (Fe ), wfc  5 (l=2 m= 1)
     state #  88: atom   7 (Fe ), wfc  5 (l=2 m= 2)
     state #  89: atom   7 (Fe ), wfc  5 (l=2 m= 3)
     state #  90: atom   7 (Fe ), wfc  5 (l=2 m= 4)
     state #  91: atom   7 (Fe ), wfc  5 (l=2 m= 5)
     state #  92: atom   8 (Fe ), wfc  1 (l=0 m= 1)
     state #  93: atom   8 (Fe ), wfc  2 (l=0 m= 1)
     state #  94: atom   8 (Fe ), wfc  3 (l=1 m= 1)
     state #  95: atom   8 (Fe ), wfc  3 (l=1 m= 2)
     state #  96: atom   8 (Fe ), wfc  3 (l=1 m= 3)
     state #  97: atom   8 (Fe ), wfc  4 (l=1 m= 1)
     state #  98: atom   8 (Fe ), wfc  4 (l=1 m= 2)
     state #  99: atom   8 (Fe ), wfc  4 (l=1 m= 3)
     state # 100: atom   8 (Fe ), wfc  5 (l=2 m= 1)
     state # 101: atom   8 (Fe ), wfc  5 (l=2 m= 2)
     state # 102: atom   8 (Fe ), wfc  5 (l=2 m= 3)
     state # 103: atom   8 (Fe ), wfc  5 (l=2 m= 4)
     state # 104: atom   8 (Fe ), wfc  5 (l=2 m= 5)
     state # 105: atom   9 (Fe ), wfc  1 (l=0 m= 1)
     state # 106: atom   9 (Fe ), wfc  2 (l=0 m= 1)
     state # 107: atom   9 (Fe ), wfc  3 (l=1 m= 1)
     state # 108: atom   9 (Fe ), wfc  3 (l=1 m= 2)
     state # 109: atom   9 (Fe ), wfc  3 (l=1 m= 3)
     state # 110: atom   9 (Fe ), wfc  4 (l=1 m= 1)
     state # 111: atom   9 (Fe ), wfc  4 (l=1 m= 2)
     state # 112: atom   9 (Fe ), wfc  4 (l=1 m= 3)
     state # 113: atom   9 (Fe ), wfc  5 (l=2 m= 1)
     state # 114: atom   9 (Fe ), wfc  5 (l=2 m= 2)
     state # 115: atom   9 (Fe ), wfc  5 (l=2 m= 3)
     state # 116: atom   9 (Fe ), wfc  5 (l=2 m= 4)
     state # 117: atom   9 (Fe ), wfc  5 (l=2 m= 5)
     state # 118: atom  10 (Fe ), wfc  1 (l=0 m= 1)
     state # 119: atom  10 (Fe ), wfc  2 (l=0 m= 1)
     state # 120: atom  10 (Fe ), wfc  3 (l=1 m= 1)
     state # 121: atom  10 (Fe ), wfc  3 (l=1 m= 2)
     state # 122: atom  10 (Fe ), wfc  3 (l=1 m= 3)
     state # 123: atom  10 (Fe ), wfc  4 (l=1 m= 1)
     state # 124: atom  10 (Fe ), wfc  4 (l=1 m= 2)
     state # 125: atom  10 (Fe ), wfc  4 (l=1 m= 3)
     state # 126: atom  10 (Fe ), wfc  5 (l=2 m= 1)
     state # 127: atom  10 (Fe ), wfc  5 (l=2 m= 2)
     state # 128: atom  10 (Fe ), wfc  5 (l=2 m= 3)
     state # 129: atom  10 (Fe ), wfc  5 (l=2 m= 4)
     state # 130: atom  10 (Fe ), wfc  5 (l=2 m= 5)
     state # 131: atom  11 (Fe ), wfc  1 (l=0 m= 1)
     state # 132: atom  11 (Fe ), wfc  2 (l=0 m= 1)
     state # 133: atom  11 (Fe ), wfc  3 (l=1 m= 1)
     state # 134: atom  11 (Fe ), wfc  3 (l=1 m= 2)
     state # 135: atom  11 (Fe ), wfc  3 (l=1 m= 3)
     state # 136: atom  11 (Fe ), wfc  4 (l=1 m= 1)
     state # 137: atom  11 (Fe ), wfc  4 (l=1 m= 2)
     state # 138: atom  11 (Fe ), wfc  4 (l=1 m= 3)
     state # 139: atom  11 (Fe ), wfc  5 (l=2 m= 1)
     state # 140: atom  11 (Fe ), wfc  5 (l=2 m= 2)
     state # 141: atom  11 (Fe ), wfc  5 (l=2 m= 3)
     state # 142: atom  11 (Fe ), wfc  5 (l=2 m= 4)
     state # 143: atom  11 (Fe ), wfc  5 (l=2 m= 5)
     state # 144: atom  12 (Fe ), wfc  1 (l=0 m= 1)
     state # 145: atom  12 (Fe ), wfc  2 (l=0 m= 1)
     state # 146: atom  12 (Fe ), wfc  3 (l=1 m= 1)
     state # 147: atom  12 (Fe ), wfc  3 (l=1 m= 2)
     state # 148: atom  12 (Fe ), wfc  3 (l=1 m= 3)
     state # 149: atom  12 (Fe ), wfc  4 (l=1 m= 1)
     state # 150: atom  12 (Fe ), wfc  4 (l=1 m= 2)
     state # 151: atom  12 (Fe ), wfc  4 (l=1 m= 3)
     state # 152: atom  12 (Fe ), wfc  5 (l=2 m= 1)
     state # 153: atom  12 (Fe ), wfc  5 (l=2 m= 2)
     state # 154: atom  12 (Fe ), wfc  5 (l=2 m= 3)
     state # 155: atom  12 (Fe ), wfc  5 (l=2 m= 4)
     state # 156: atom  12 (Fe ), wfc  5 (l=2 m= 5)
     state # 157: atom  13 (Fe ), wfc  1 (l=0 m= 1)
     state # 158: atom  13 (Fe ), wfc  2 (l=0 m= 1)
     state # 159: atom  13 (Fe ), wfc  3 (l=1 m= 1)
     state # 160: atom  13 (Fe ), wfc  3 (l=1 m= 2)
     state # 161: atom  13 (Fe ), wfc  3 (l=1 m= 3)
     state # 162: atom  13 (Fe ), wfc  4 (l=1 m= 1)
     state # 163: atom  13 (Fe ), wfc  4 (l=1 m= 2)
     state # 164: atom  13 (Fe ), wfc  4 (l=1 m= 3)
     state # 165: atom  13 (Fe ), wfc  5 (l=2 m= 1)
     state # 166: atom  13 (Fe ), wfc  5 (l=2 m= 2)
     state # 167: atom  13 (Fe ), wfc  5 (l=2 m= 3)
     state # 168: atom  13 (Fe ), wfc  5 (l=2 m= 4)
     state # 169: atom  13 (Fe ), wfc  5 (l=2 m= 5)
     state # 170: atom  14 (Fe ), wfc  1 (l=0 m= 1)
     state # 171: atom  14 (Fe ), wfc  2 (l=0 m= 1)
     state # 172: atom  14 (Fe ), wfc  3 (l=1 m= 1)
     state # 173: atom  14 (Fe ), wfc  3 (l=1 m= 2)
     state # 174: atom  14 (Fe ), wfc  3 (l=1 m= 3)
     state # 175: atom  14 (Fe ), wfc  4 (l=1 m= 1)
     state # 176: atom  14 (Fe ), wfc  4 (l=1 m= 2)
     state # 177: atom  14 (Fe ), wfc  4 (l=1 m= 3)
     state # 178: atom  14 (Fe ), wfc  5 (l=2 m= 1)
     state # 179: atom  14 (Fe ), wfc  5 (l=2 m= 2)
     state # 180: atom  14 (Fe ), wfc  5 (l=2 m= 3)
     state # 181: atom  14 (Fe ), wfc  5 (l=2 m= 4)
     state # 182: atom  14 (Fe ), wfc  5 (l=2 m= 5)
     state # 183: atom  15 (Fe ), wfc  1 (l=0 m= 1)
     state # 184: atom  15 (Fe ), wfc  2 (l=0 m= 1)
     state # 185: atom  15 (Fe ), wfc  3 (l=1 m= 1)
     state # 186: atom  15 (Fe ), wfc  3 (l=1 m= 2)
     state # 187: atom  15 (Fe ), wfc  3 (l=1 m= 3)
     state # 188: atom  15 (Fe ), wfc  4 (l=1 m= 1)
     state # 189: atom  15 (Fe ), wfc  4 (l=1 m= 2)
     state # 190: atom  15 (Fe ), wfc  4 (l=1 m= 3)
     state # 191: atom  15 (Fe ), wfc  5 (l=2 m= 1)
     state # 192: atom  15 (Fe ), wfc  5 (l=2 m= 2)
     state # 193: atom  15 (Fe ), wfc  5 (l=2 m= 3)
     state # 194: atom  15 (Fe ), wfc  5 (l=2 m= 4)
     state # 195: atom  15 (Fe ), wfc  5 (l=2 m= 5)
     state # 196: atom  16 (Fe ), wfc  1 (l=0 m= 1)
     state # 197: atom  16 (Fe ), wfc  2 (l=0 m= 1)
     state # 198: atom  16 (Fe ), wfc  3 (l=1 m= 1)
     state # 199: atom  16 (Fe ), wfc  3 (l=1 m= 2)
     state # 200: atom  16 (Fe ), wfc  3 (l=1 m= 3)
     state # 201: atom  16 (Fe ), wfc  4 (l=1 m= 1)
     state # 202: atom  16 (Fe ), wfc  4 (l=1 m= 2)
     state # 203: atom  16 (Fe ), wfc  4 (l=1 m= 3)
     state # 204: atom  16 (Fe ), wfc  5 (l=2 m= 1)
     state # 205: atom  16 (Fe ), wfc  5 (l=2 m= 2)
     state # 206: atom  16 (Fe ), wfc  5 (l=2 m= 3)
     state # 207: atom  16 (Fe ), wfc  5 (l=2 m= 4)
     state # 208: atom  16 (Fe ), wfc  5 (l=2 m= 5)
     state # 209: atom  17 (Fe ), wfc  1 (l=0 m= 1)
     state # 210: atom  17 (Fe ), wfc  2 (l=0 m= 1)
     state # 211: atom  17 (Fe ), wfc  3 (l=1 m= 1)
     state # 212: atom  17 (Fe ), wfc  3 (l=1 m= 2)
     state # 213: atom  17 (Fe ), wfc  3 (l=1 m= 3)
     state # 214: atom  17 (Fe ), wfc  4 (l=1 m= 1)
     state # 215: atom  17 (Fe ), wfc  4 (l=1 m= 2)
     state # 216: atom  17 (Fe ), wfc  4 (l=1 m= 3)
     state # 217: atom  17 (Fe ), wfc  5 (l=2 m= 1)
     state # 218: atom  17 (Fe ), wfc  5 (l=2 m= 2)
     state # 219: atom  17 (Fe ), wfc  5 (l=2 m= 3)
     state # 220: atom  17 (Fe ), wfc  5 (l=2 m= 4)
     state # 221: atom  17 (Fe ), wfc  5 (l=2 m= 5)
     state # 222: atom  18 (Fe ), wfc  1 (l=0 m= 1)
     state # 223: atom  18 (Fe ), wfc  2 (l=0 m= 1)
     state # 224: atom  18 (Fe ), wfc  3 (l=1 m= 1)
     state # 225: atom  18 (Fe ), wfc  3 (l=1 m= 2)
     state # 226: atom  18 (Fe ), wfc  3 (l=1 m= 3)
     state # 227: atom  18 (Fe ), wfc  4 (l=1 m= 1)
     state # 228: atom  18 (Fe ), wfc  4 (l=1 m= 2)
     state # 229: atom  18 (Fe ), wfc  4 (l=1 m= 3)
     state # 230: atom  18 (Fe ), wfc  5 (l=2 m= 1)
     state # 231: atom  18 (Fe ), wfc  5 (l=2 m= 2)
     state # 232: atom  18 (Fe ), wfc  5 (l=2 m= 3)
     state # 233: atom  18 (Fe ), wfc  5 (l=2 m= 4)
     state # 234: atom  18 (Fe ), wfc  5 (l=2 m= 5)
     state # 235: atom  19 (Fe ), wfc  1 (l=0 m= 1)
     state # 236: atom  19 (Fe ), wfc  2 (l=0 m= 1)
     state # 237: atom  19 (Fe ), wfc  3 (l=1 m= 1)
     state # 238: atom  19 (Fe ), wfc  3 (l=1 m= 2)
     state # 239: atom  19 (Fe ), wfc  3 (l=1 m= 3)
     state # 240: atom  19 (Fe ), wfc  4 (l=1 m= 1)
     state # 241: atom  19 (Fe ), wfc  4 (l=1 m= 2)
     state # 242: atom  19 (Fe ), wfc  4 (l=1 m= 3)
     state # 243: atom  19 (Fe ), wfc  5 (l=2 m= 1)
     state # 244: atom  19 (Fe ), wfc  5 (l=2 m= 2)
     state # 245: atom  19 (Fe ), wfc  5 (l=2 m= 3)
     state # 246: atom  19 (Fe ), wfc  5 (l=2 m= 4)
     state # 247: atom  19 (Fe ), wfc  5 (l=2 m= 5)
     state # 248: atom  20 (Fe ), wfc  1 (l=0 m= 1)
     state # 249: atom  20 (Fe ), wfc  2 (l=0 m= 1)
     state # 250: atom  20 (Fe ), wfc  3 (l=1 m= 1)
     state # 251: atom  20 (Fe ), wfc  3 (l=1 m= 2)
     state # 252: atom  20 (Fe ), wfc  3 (l=1 m= 3)
     state # 253: atom  20 (Fe ), wfc  4 (l=1 m= 1)
     state # 254: atom  20 (Fe ), wfc  4 (l=1 m= 2)
     state # 255: atom  20 (Fe ), wfc  4 (l=1 m= 3)
     state # 256: atom  20 (Fe ), wfc  5 (l=2 m= 1)
     state # 257: atom  20 (Fe ), wfc  5 (l=2 m= 2)
     state # 258: atom  20 (Fe ), wfc  5 (l=2 m= 3)
     state # 259: atom  20 (Fe ), wfc  5 (l=2 m= 4)
     state # 260: atom  20 (Fe ), wfc  5 (l=2 m= 5)
     state # 261: atom  21 (S  ), wfc  1 (l=0 m= 1)
     state # 262: atom  21 (S  ), wfc  2 (l=1 m= 1)
     state # 263: atom  21 (S  ), wfc  2 (l=1 m= 2)
     state # 264: atom  21 (S  ), wfc  2 (l=1 m= 3)
     state # 265: atom  22 (S1 ), wfc  1 (l=0 m= 1)
     state # 266: atom  22 (S1 ), wfc  2 (l=1 m= 1)
     state # 267: atom  22 (S1 ), wfc  2 (l=1 m= 2)
     state # 268: atom  22 (S1 ), wfc  2 (l=1 m= 3)
     state # 269: atom  23 (S2 ), wfc  1 (l=0 m= 1)
     state # 270: atom  23 (S2 ), wfc  2 (l=1 m= 1)
     state # 271: atom  23 (S2 ), wfc  2 (l=1 m= 2)
     state # 272: atom  23 (S2 ), wfc  2 (l=1 m= 3)
     state # 273: atom  24 (S3 ), wfc  1 (l=0 m= 1)
     state # 274: atom  24 (S3 ), wfc  2 (l=1 m= 1)
     state # 275: atom  24 (S3 ), wfc  2 (l=1 m= 2)
     state # 276: atom  24 (S3 ), wfc  2 (l=1 m= 3)

 k =   0.0000000000  0.0000000000  0.0000000000
==== e(   1) =   -80.67417 eV ==== 
     psi = 0.224*[# 235]+0.224*[# 248]+0.224*[# 209]+0.224*[# 222]+0.018*[# 162]+
          +0.018*[# 175]+0.018*[# 188]+0.018*[# 201]+0.002*[# 158]+0.002*[# 171]+
          +0.002*[# 184]+0.002*[# 197]+0.001*[# 110]+0.001*[# 123]+0.001*[# 136]+
          +0.001*[# 149]+0.001*[# 262]+0.001*[# 266]+0.001*[# 270]+0.001*[# 274]+
    |psi|^2 = 1.000
==== e(   2) =   -80.63293 eV ==== 
     psi = 0.487*[# 235]+0.487*[# 248]+0.005*[# 236]+0.005*[# 249]+0.002*[# 163]+
          +0.002*[# 176]+0.002*[# 221]+0.002*[# 234]+0.001*[# 190]+0.001*[# 203]+
          +0.001*[# 267]+0.001*[# 275]+
    |psi|^2 = 1.000
==== e(   3) =   -80.63290 eV ==== 
     psi = 0.487*[# 209]+0.487*[# 222]+0.005*[# 210]+0.005*[# 223]+0.002*[# 189]+
          +0.002*[# 202]+0.002*[# 247]+0.002*[# 260]+0.001*[# 164]+0.001*[# 177]+
          +0.001*[# 263]+0.001*[# 271]+
    |psi|^2 = 1.000
==== e(   4) =   -80.60402 eV ==== 
     psi = 0.239*[# 209]+0.239*[# 222]+0.239*[# 235]+0.239*[# 248]+0.008*[# 210]+
          +0.008*[# 223]+0.008*[# 236]+0.008*[# 249]+
    |psi|^2 = 1.000
==== e(   5) =   -80.34595 eV ==== 
     psi = 0.221*[#   1]+0.221*[#  14]+0.221*[#  27]+0.221*[#  40]+0.017*[#  58]+
          +0.017*[#  71]+0.017*[#  84]+0.017*[#  97]+0.003*[#  53]+0.003*[#  66]+
          +0.003*[#  79]+0.003*[#  92]+0.002*[#  54]+0.002*[#  67]+0.002*[#  80]+
          +0.002*[#  93]+0.002*[# 110]+0.002*[# 123]+0.002*[# 136]+0.002*[# 149]+
          +0.001*[#   2]+0.001*[#  15]+0.001*[#  28]+0.001*[#  41]+0.001*[# 106]+
          +0.001*[# 119]+0.001*[# 132]+0.001*[# 145]+
    |psi|^2 = 1.000
==== e(   6) =   -80.32014 eV ==== 
     psi = 0.211*[# 183]+0.211*[# 196]+0.211*[# 157]+0.211*[# 170]+0.013*[# 110]+
          +0.013*[# 123]+0.013*[# 136]+0.013*[# 149]+0.011*[# 214]+0.011*[# 227]+
          +0.011*[# 240]+0.011*[# 253]+0.005*[# 105]+0.005*[# 118]+0.005*[# 131]+
          +0.005*[# 144]+0.002*[# 210]+0.002*[# 223]+0.002*[# 236]+0.002*[# 249]+
          +0.002*[#  58]+0.002*[#  71]+0.002*[#  84]+0.002*[#  97]+0.002*[# 106]+
          +0.002*[# 119]+0.002*[# 132]+0.002*[# 145]+
    |psi|^2 = 1.000
==== e(   7) =   -80.30392 eV ==== 
     psi = 0.489*[#  27]+0.489*[#  40]+0.005*[#  28]+0.005*[#  41]+0.003*[#  59]+
          +0.003*[#  72]+0.002*[#  13]+0.002*[#  26]+0.001*[#  86]+0.001*[#  99]+
    |psi|^2 = 1.000
==== e(   8) =   -80.30392 eV ==== 
     psi = 0.489*[#   1]+0.489*[#  14]+0.005*[#   2]+0.005*[#  15]+0.003*[#  85]+
          +0.003*[#  98]+0.002*[#  39]+0.002*[#  52]+0.001*[#  60]+0.001*[#  73]+
    |psi|^2 = 1.000
==== e(   9) =   -80.27820 eV ==== 
     psi = 0.484*[# 183]+0.484*[# 196]+0.006*[# 184]+0.006*[# 197]+0.002*[# 111]+
          +0.002*[# 124]+0.002*[# 215]+0.002*[# 228]+0.002*[# 169]+0.002*[# 182]+
          +0.001*[# 138]+0.001*[# 151]+0.001*[# 242]+0.001*[# 255]+
    |psi|^2 = 1.000
==== e(  10) =   -80.27815 eV ==== 
     psi = 0.484*[# 157]+0.484*[# 170]+0.006*[# 158]+0.006*[# 171]+0.002*[# 137]+
          +0.002*[# 150]+0.002*[# 241]+0.002*[# 254]+0.002*[# 195]+0.002*[# 208]+
          +0.001*[# 112]+0.001*[# 125]+0.001*[# 216]+0.001*[# 229]+
    |psi|^2 = 1.000
==== e(  11) =   -80.27635 eV ==== 
     psi = 0.238*[#   1]+0.238*[#  14]+0.238*[#  27]+0.238*[#  40]+0.007*[#   2]+
          +0.007*[#  15]+0.007*[#  28]+0.007*[#  41]+0.003*[#  53]+0.003*[#  66]+
          +0.003*[#  79]+0.003*[#  92]+
    |psi|^2 = 1.000
==== e(  12) =   -80.25050 eV ==== 
     psi = 0.235*[# 157]+0.235*[# 170]+0.234*[# 183]+0.234*[# 196]+0.008*[# 158]+
          +0.008*[# 171]+0.008*[# 184]+0.008*[# 197]+0.004*[# 105]+0.004*[# 118]+
          +0.004*[# 131]+0.004*[# 144]+
    |psi|^2 = 1.000
==== e(  13) =   -80.21394 eV ==== 
     psi = 0.105*[#  53]+0.105*[#  66]+0.105*[#  79]+0.105*[#  92]+0.100*[# 105]+
          +0.100*[# 118]+0.100*[# 131]+0.100*[# 144]+0.010*[# 110]+0.010*[# 123]+
          +0.010*[# 136]+0.010*[# 149]+0.009*[# 162]+0.009*[# 175]+0.009*[# 188]+
          +0.009*[# 201]+0.007*[#  58]+0.007*[#  71]+0.007*[#  84]+0.007*[#  97]+
          +0.006*[#   6]+0.006*[#  19]+0.006*[#  32]+0.006*[#  45]+0.004*[# 157]+
          +0.004*[# 170]+0.004*[# 183]+0.004*[# 196]+0.002*[#   1]+0.002*[#   2]+
          +0.002*[#  14]+0.002*[#  15]+0.002*[#  27]+0.002*[#  28]+0.002*[#  40]+
          +0.002*[#  41]+0.002*[# 158]+0.002*[# 171]+0.002*[# 184]+0.002*[# 197]+
    |psi|^2 = 1.000
==== e(  14) =   -80.17540 eV ==== 
     psi = 0.112*[# 105]+0.112*[# 118]+0.112*[# 131]+0.112*[# 144]+0.111*[#  53]+
          +0.111*[#  66]+0.111*[#  79]+0.111*[#  92]+0.005*[#  58]+0.005*[#  71]+
          +0.005*[#  84]+0.005*[#  97]+0.005*[# 110]+0.005*[# 123]+0.005*[# 136]+
          +0.005*[# 149]+0.004*[# 162]+0.004*[# 175]+0.004*[# 188]+0.004*[# 201]+
          +0.004*[# 157]+0.004*[# 170]+0.004*[# 183]+0.004*[# 196]+0.003*[#   6]+
          +0.003*[#  19]+0.003*[#  32]+0.003*[#  45]+0.003*[#   1]+0.003*[#  14]+
          +0.003*[#  27]+0.003*[#  40]+
    |psi|^2 = 1.000
==== e(  15) =   -80.15837 eV ==== 
     psi = 0.484*[# 131]+0.484*[# 144]+0.006*[# 132]+0.006*[# 145]+0.002*[#  59]+
          +0.002*[#  72]+0.002*[# 163]+0.002*[# 176]+0.002*[# 117]+0.002*[# 130]+
          +0.001*[#  86]+0.001*[#  99]+0.001*[# 190]+0.001*[# 203]+
    |psi|^2 = 1.000
==== e(  16) =   -80.15836 eV ==== 
     psi = 0.484*[# 105]+0.484*[# 118]+0.006*[# 106]+0.006*[# 119]+0.002*[#  85]+
          +0.002*[#  98]+0.002*[# 189]+0.002*[# 202]+0.002*[# 143]+0.002*[# 156]+
          +0.001*[#  60]+0.001*[#  73]+0.001*[# 164]+0.001*[# 177]+
    |psi|^2 = 1.000
==== e(  17) =   -80.15811 eV ==== 
     psi = 0.484*[#  53]+0.484*[#  66]+0.006*[#  54]+0.006*[#  67]+0.002*[# 137]+
          +0.002*[# 150]+0.002*[#  33]+0.002*[#  46]+0.002*[#  91]+0.002*[# 104]+
          +0.001*[#   8]+0.001*[#  21]+0.001*[# 112]+0.001*[# 125]+
    |psi|^2 = 1.000
==== e(  18) =   -80.15810 eV ==== 
     psi = 0.484*[#  79]+0.484*[#  92]+0.006*[#  80]+0.006*[#  93]+0.002*[# 111]+
          +0.002*[# 124]+0.002*[#   7]+0.002*[#  20]+0.002*[#  65]+0.002*[#  78]+
          +0.001*[#  34]+0.001*[#  47]+0.001*[# 138]+0.001*[# 151]+
    |psi|^2 = 1.000
==== e(  19) =   -80.14187 eV ==== 
     psi = 0.119*[#  53]+0.119*[#  66]+0.119*[#  79]+0.119*[#  92]+0.118*[# 105]+
          +0.118*[# 118]+0.118*[# 131]+0.118*[# 144]+0.003*[#  54]+0.003*[#  67]+
          +0.003*[#  80]+0.003*[#  93]+0.003*[# 106]+0.003*[# 119]+0.003*[# 132]+
          +0.003*[# 145]+0.002*[# 157]+0.002*[# 170]+0.002*[# 183]+0.002*[# 196]+
          +0.001*[#   1]+0.001*[#  14]+0.001*[#  27]+0.001*[#  40]+
    |psi|^2 = 1.000
==== e(  20) =   -80.11324 eV ==== 
     psi = 0.116*[#  53]+0.116*[#  66]+0.116*[#  79]+0.116*[#  92]+0.116*[# 105]+
          +0.116*[# 118]+0.116*[# 131]+0.116*[# 144]+0.006*[#  54]+0.006*[#  67]+
          +0.006*[#  80]+0.006*[#  93]+0.006*[# 106]+0.006*[# 119]+0.006*[# 132]+
          +0.006*[# 145]+0.001*[# 157]+0.001*[# 170]+0.001*[# 183]+0.001*[# 196]+
    |psi|^2 = 1.000
==== e(  21) =   -46.86504 eV ==== 
     psi = 0.247*[# 213]+0.247*[# 226]+0.247*[# 239]+0.247*[# 252]+0.001*[# 161]+
          +0.001*[# 174]+0.001*[# 187]+0.001*[# 200]+
    |psi|^2 = 1.000
==== e(  22) =   -46.85808 eV ==== 
     psi = 0.277*[# 238]+0.277*[# 251]+0.195*[# 213]+0.195*[# 226]+0.007*[# 159]+
          +0.007*[# 172]+0.006*[# 212]+0.006*[# 225]+0.005*[# 241]+0.005*[# 254]+
          +0.004*[# 239]+0.004*[# 252]+0.002*[# 162]+0.002*[# 175]+0.001*[# 216]+
          +0.001*[# 229]+0.002*[# 266]+0.002*[# 274]+
    |psi|^2 = 1.000
==== e(  23) =   -46.85808 eV ==== 
     psi = 0.277*[# 212]+0.277*[# 225]+0.195*[# 239]+0.195*[# 252]+0.007*[# 185]+
          +0.007*[# 198]+0.006*[# 238]+0.006*[# 251]+0.005*[# 215]+0.005*[# 228]+
          +0.004*[# 213]+0.004*[# 226]+0.002*[# 188]+0.002*[# 201]+0.001*[# 242]+
          +0.001*[# 255]+0.002*[# 262]+0.002*[# 270]+
    |psi|^2 = 1.000
==== e(  24) =   -46.81205 eV ==== 
     psi = 0.231*[# 211]+0.231*[# 224]+0.231*[# 237]+0.231*[# 250]+0.012*[# 159]+
          +0.012*[# 172]+0.012*[# 185]+0.012*[# 198]+0.003*[# 214]+0.003*[# 227]+
          +0.003*[# 240]+0.003*[# 253]+0.001*[# 162]+0.001*[# 175]+0.001*[# 188]+
          +0.001*[# 201]+0.001*[# 262]+0.001*[# 266]+0.001*[# 270]+0.001*[# 274]+
    |psi|^2 = 1.000
==== e(  25) =   -46.76732 eV ==== 
     psi = 0.467*[# 237]+0.467*[# 250]+0.021*[# 160]+0.021*[# 173]+0.005*[# 187]+
          +0.005*[# 200]+0.002*[# 163]+0.002*[# 176]+0.002*[# 267]+0.002*[# 275]+
          +0.001*[# 190]+0.001*[# 203]+0.001*[# 240]+0.001*[# 253]+
    |psi|^2 = 1.000
==== e(  26) =   -46.76730 eV ==== 
     psi = 0.467*[# 211]+0.467*[# 224]+0.021*[# 186]+0.021*[# 199]+0.005*[# 161]+
          +0.005*[# 174]+0.002*[# 189]+0.002*[# 202]+0.002*[# 263]+0.002*[# 271]+
          +0.001*[# 164]+0.001*[# 177]+0.001*[# 214]+0.001*[# 227]+
    |psi|^2 = 1.000
==== e(  27) =   -46.73924 eV ==== 
     psi = 0.240*[# 211]+0.240*[# 224]+0.240*[# 237]+0.240*[# 250]+0.007*[# 159]+
          +0.007*[# 172]+0.007*[# 185]+0.007*[# 198]+0.002*[# 214]+0.002*[# 227]+
          +0.002*[# 240]+0.002*[# 253]+
    |psi|^2 = 1.000
==== e(  28) =   -46.73437 eV ==== 
     psi = 0.245*[# 212]+0.245*[# 225]+0.245*[# 238]+0.245*[# 251]+0.003*[# 160]+
          +0.003*[# 173]+0.003*[# 186]+0.003*[# 199]+0.002*[# 215]+0.002*[# 228]+
          +0.002*[# 241]+0.002*[# 254]+
    |psi|^2 = 1.000
==== e(  29) =   -46.58203 eV ==== 
     psi = 0.240*[# 212]+0.240*[# 225]+0.240*[# 238]+0.240*[# 251]+0.007*[# 215]+
          +0.007*[# 228]+0.007*[# 241]+0.007*[# 254]+0.002*[# 160]+0.002*[# 173]+
          +0.002*[# 186]+0.002*[# 199]+
    |psi|^2 = 1.000
==== e(  30) =   -46.55309 eV ==== 
     psi = 0.283*[# 239]+0.283*[# 252]+0.182*[# 212]+0.182*[# 225]+0.013*[# 185]+
          +0.013*[# 198]+0.011*[# 242]+0.011*[# 255]+0.004*[# 215]+0.004*[# 228]+
          +0.003*[# 213]+0.003*[# 226]+0.002*[# 238]+0.002*[# 251]+0.002*[# 108]+
          +0.002*[# 121]+
    |psi|^2 = 1.000
==== e(  31) =   -46.55309 eV ==== 
     psi = 0.283*[# 213]+0.283*[# 226]+0.182*[# 238]+0.182*[# 251]+0.013*[# 159]+
          +0.013*[# 172]+0.011*[# 216]+0.011*[# 229]+0.004*[# 241]+0.004*[# 254]+
          +0.003*[# 239]+0.003*[# 252]+0.002*[# 212]+0.002*[# 225]+0.002*[# 134]+
          +0.002*[# 147]+
    |psi|^2 = 1.000
==== e(  32) =   -46.55185 eV ==== 
     psi = 0.211*[#   3]+0.211*[#  16]+0.211*[#  29]+0.211*[#  42]+0.028*[#  55]+
          +0.028*[#  68]+0.028*[#  81]+0.028*[#  94]+0.004*[# 107]+0.004*[# 120]+
          +0.004*[# 133]+0.004*[# 146]+0.002*[#   6]+0.002*[#  19]+0.002*[#  32]+
          +0.002*[#  45]+0.002*[#  58]+0.002*[#  71]+0.002*[#  84]+0.002*[#  97]+
          +0.001*[# 159]+0.001*[# 172]+0.001*[# 185]+0.001*[# 198]+
    |psi|^2 = 1.000
==== e(  33) =   -46.51688 eV ==== 
     psi = 0.203*[#  29]+0.203*[#  42]+0.161*[#   3]+0.161*[#  16]+0.039*[#  56]+
          +0.039*[#  69]+0.031*[#  82]+0.031*[#  95]+0.017*[#  83]+0.017*[#  96]+
          +0.013*[#  57]+0.013*[#  70]+0.006*[# 160]+0.006*[# 173]+0.006*[# 133]+
          +0.006*[# 146]+0.005*[# 186]+0.005*[# 199]+0.004*[# 107]+0.004*[# 120]+
          +0.004*[# 187]+0.004*[# 200]+0.003*[# 161]+0.003*[# 174]+0.002*[#  59]+
          +0.002*[#  72]+0.002*[#  85]+0.002*[#  98]+0.001*[#  86]+0.001*[#  99]+
    |psi|^2 = 1.000
==== e(  34) =   -46.51688 eV ==== 
     psi = 0.203*[#   3]+0.203*[#  16]+0.161*[#  29]+0.161*[#  42]+0.039*[#  82]+
          +0.039*[#  95]+0.031*[#  56]+0.031*[#  69]+0.017*[#  57]+0.017*[#  70]+
          +0.013*[#  83]+0.013*[#  96]+0.006*[# 186]+0.006*[# 199]+0.006*[# 107]+
          +0.006*[# 120]+0.005*[# 160]+0.005*[# 173]+0.004*[# 133]+0.004*[# 146]+
          +0.004*[# 161]+0.004*[# 174]+0.003*[# 187]+0.003*[# 200]+0.002*[#  85]+
          +0.002*[#  98]+0.002*[#  59]+0.002*[#  72]+0.001*[#  60]+0.001*[#  73]+
    |psi|^2 = 1.000
==== e(  35) =   -46.50213 eV ==== 
     psi = 0.224*[# 161]+0.224*[# 174]+0.224*[# 187]+0.224*[# 200]+0.016*[# 109]+
          +0.016*[# 122]+0.016*[# 135]+0.016*[# 148]+0.003*[#  57]+0.003*[#  70]+
          +0.003*[#  83]+0.003*[#  96]+0.003*[#   5]+0.003*[#  18]+0.003*[#  31]+
          +0.003*[#  44]+0.001*[# 213]+0.001*[# 226]+0.001*[# 239]+0.001*[# 252]+
    |psi|^2 = 1.000
==== e(  36) =   -46.50045 eV ==== 
     psi = 0.242*[# 213]+0.242*[# 226]+0.242*[# 239]+0.242*[# 252]+0.008*[# 216]+
          +0.008*[# 229]+0.008*[# 242]+0.008*[# 255]+
    |psi|^2 = 1.000
==== e(  37) =   -46.48488 eV ==== 
     psi = 0.237*[# 186]+0.237*[# 199]+0.174*[# 161]+0.174*[# 174]+0.031*[#   3]+
          +0.031*[#  16]+0.024*[# 107]+0.024*[# 120]+0.023*[# 211]+0.023*[# 224]+
          +0.003*[# 189]+0.003*[# 202]+0.003*[# 214]+0.003*[# 227]+0.001*[# 110]+
          +0.001*[# 123]+
    |psi|^2 = 1.000
==== e(  38) =   -46.48486 eV ==== 
     psi = 0.237*[# 160]+0.237*[# 173]+0.174*[# 187]+0.174*[# 200]+0.031*[#  29]+
          +0.031*[#  42]+0.024*[# 133]+0.024*[# 146]+0.023*[# 237]+0.023*[# 250]+
          +0.003*[# 163]+0.003*[# 176]+0.003*[# 240]+0.003*[# 253]+0.001*[# 136]+
          +0.001*[# 149]+
    |psi|^2 = 1.000
==== e(  39) =   -46.48301 eV ==== 
     psi = 0.207*[#   5]+0.207*[#  18]+0.207*[#  31]+0.207*[#  44]+0.034*[#  57]+
          +0.034*[#  70]+0.034*[#  83]+0.034*[#  96]+0.006*[# 161]+0.006*[# 174]+
          +0.006*[# 187]+0.006*[# 200]+0.001*[#   8]+0.001*[#  21]+0.001*[#  34]+
          +0.001*[#  47]+0.001*[#  60]+0.001*[#  73]+0.001*[#  86]+0.001*[#  99]+
    |psi|^2 = 1.000
==== e(  40) =   -46.48226 eV ==== 
     psi = 0.239*[#  30]+0.239*[#  43]+0.148*[#   5]+0.148*[#  18]+0.034*[#  55]+
          +0.034*[#  68]+0.025*[#   4]+0.025*[#  17]+0.016*[#  31]+0.016*[#  44]+
          +0.013*[# 134]+0.013*[# 147]+0.006*[# 109]+0.006*[# 122]+0.004*[#  33]+
          +0.004*[#  46]+0.004*[#  81]+0.004*[#  94]+0.003*[# 159]+0.003*[# 172]+
          +0.002*[#   8]+0.002*[#  21]+0.002*[#  58]+0.002*[#  71]+0.001*[# 108]+
          +0.001*[# 121]+
    |psi|^2 = 1.000
==== e(  41) =   -46.48226 eV ==== 
     psi = 0.239*[#   4]+0.239*[#  17]+0.148*[#  31]+0.148*[#  44]+0.034*[#  81]+
          +0.034*[#  94]+0.025*[#  30]+0.025*[#  43]+0.016*[#   5]+0.016*[#  18]+
          +0.013*[# 108]+0.013*[# 121]+0.006*[# 135]+0.006*[# 148]+0.004*[#   7]+
          +0.004*[#  20]+0.004*[#  55]+0.004*[#  68]+0.003*[# 185]+0.003*[# 198]+
          +0.002*[#  34]+0.002*[#  47]+0.002*[#  84]+0.002*[#  97]+0.001*[# 134]+
          +0.001*[# 147]+
    |psi|^2 = 1.000
==== e(  42) =   -46.47647 eV ==== 
     psi = 0.230*[#   3]+0.230*[#  16]+0.230*[#  29]+0.230*[#  42]+0.016*[#  55]+
          +0.016*[#  68]+0.016*[#  81]+0.016*[#  94]+0.002*[#   6]+0.002*[#  19]+
          +0.002*[#  32]+0.002*[#  45]+0.001*[# 107]+0.001*[# 120]+0.001*[# 133]+
          +0.001*[# 146]+
    |psi|^2 = 1.000
==== e(  43) =   -46.42518 eV ==== 
     psi = 0.190*[# 108]+0.190*[# 121]+0.136*[# 185]+0.136*[# 198]+0.101*[# 135]+
          +0.101*[# 148]+0.019*[#   4]+0.019*[#  17]+0.018*[#  31]+0.018*[#  44]+
          +0.012*[#  81]+0.012*[#  94]+0.011*[# 212]+0.011*[# 225]+0.006*[# 111]+
          +0.006*[# 124]+0.003*[# 138]+0.003*[# 151]+0.001*[# 239]+0.001*[# 252]+
    |psi|^2 = 1.000
==== e(  44) =   -46.42517 eV ==== 
     psi = 0.190*[# 134]+0.190*[# 147]+0.136*[# 159]+0.136*[# 172]+0.101*[# 109]+
          +0.101*[# 122]+0.019*[#  30]+0.019*[#  43]+0.018*[#   5]+0.018*[#  18]+
          +0.012*[#  55]+0.012*[#  68]+0.011*[# 238]+0.011*[# 251]+0.006*[# 137]+
          +0.006*[# 150]+0.003*[# 112]+0.003*[# 125]+0.001*[# 213]+0.001*[# 226]+
    |psi|^2 = 1.000
==== e(  45) =   -46.42358 eV ==== 
     psi = 0.141*[# 185]+0.141*[# 198]+0.141*[# 159]+0.141*[# 172]+0.072*[# 107]+
          +0.072*[# 120]+0.072*[# 133]+0.072*[# 146]+0.010*[#   3]+0.010*[#  16]+
          +0.010*[# 211]+0.010*[# 224]+0.010*[#  29]+0.010*[#  42]+0.010*[# 237]+
          +0.010*[# 250]+0.008*[#  55]+0.008*[#  68]+0.008*[#  81]+0.008*[#  94]+
          +0.003*[# 110]+0.003*[# 123]+0.003*[# 136]+0.003*[# 149]+0.001*[# 162]+
          +0.001*[# 175]+0.001*[# 188]+0.001*[# 201]+
    |psi|^2 = 1.000
==== e(  46) =   -46.41281 eV ==== 
     psi = 0.139*[#  57]+0.139*[#  70]+0.139*[#  83]+0.139*[#  96]+0.066*[# 109]+
          +0.066*[# 122]+0.066*[# 135]+0.066*[# 148]+0.034*[#   5]+0.034*[#  18]+
          +0.034*[#  31]+0.034*[#  44]+0.009*[# 161]+0.009*[# 174]+0.009*[# 187]+
          +0.009*[# 200]+
    |psi|^2 = 1.000
==== e(  47) =   -46.37950 eV ==== 
     psi = 0.201*[# 186]+0.201*[# 199]+0.201*[# 160]+0.201*[# 173]+0.027*[# 108]+
          +0.027*[# 121]+0.027*[# 134]+0.027*[# 147]+0.012*[#   4]+0.012*[#  17]+
          +0.012*[#  30]+0.012*[#  43]+0.006*[#  56]+0.006*[#  69]+0.006*[#  82]+
          +0.006*[#  95]+0.002*[# 212]+0.002*[# 225]+0.002*[# 238]+0.002*[# 251]+
          +0.001*[# 163]+0.001*[# 176]+0.001*[# 189]+0.001*[# 202]+
    |psi|^2 = 1.000
==== e(  48) =   -46.36471 eV ==== 
     psi = 0.208*[#   4]+0.208*[#  17]+0.208*[#  30]+0.208*[#  43]+0.021*[#  56]+
          +0.021*[#  69]+0.021*[#  82]+0.021*[#  95]+0.019*[# 160]+0.019*[# 173]+
          +0.019*[# 186]+0.019*[# 199]+0.001*[#   7]+0.001*[#  20]+0.001*[#  33]+
          +0.001*[#  46]+
    |psi|^2 = 1.000
==== e(  49) =   -46.36105 eV ==== 
     psi = 0.161*[#  83]+0.161*[#  96]+0.149*[#  56]+0.149*[#  69]+0.087*[#  29]+
          +0.087*[#  42]+0.036*[# 133]+0.036*[# 146]+0.016*[#  57]+0.016*[#  70]+
          +0.015*[#  82]+0.015*[#  95]+0.011*[# 187]+0.011*[# 200]+0.009*[#   3]+
          +0.009*[#  16]+0.004*[# 107]+0.004*[# 120]+0.003*[# 160]+0.003*[# 173]+
          +0.003*[#  32]+0.003*[#  45]+0.003*[#  59]+0.003*[#  72]+0.001*[# 161]+
          +0.001*[# 174]+
    |psi|^2 = 1.000
==== e(  50) =   -46.36105 eV ==== 
     psi = 0.161*[#  57]+0.161*[#  70]+0.149*[#  82]+0.149*[#  95]+0.087*[#   3]+
          +0.087*[#  16]+0.036*[# 107]+0.036*[# 120]+0.016*[#  83]+0.016*[#  96]+
          +0.015*[#  56]+0.015*[#  69]+0.011*[# 161]+0.011*[# 174]+0.009*[#  29]+
          +0.009*[#  42]+0.004*[# 133]+0.004*[# 146]+0.003*[# 186]+0.003*[# 199]+
          +0.003*[#   6]+0.003*[#  19]+0.003*[#  85]+0.003*[#  98]+0.001*[# 187]+
          +0.001*[# 200]+
    |psi|^2 = 1.000
==== e(  51) =   -46.35632 eV ==== 
     psi = 0.164*[# 109]+0.164*[# 122]+0.164*[# 135]+0.164*[# 148]+0.073*[#  57]+
          +0.073*[#  70]+0.073*[#  83]+0.073*[#  96]+0.008*[# 161]+0.008*[# 174]+
          +0.008*[# 187]+0.008*[# 200]+0.005*[#   5]+0.005*[#  18]+0.005*[#  31]+
          +0.005*[#  44]+
    |psi|^2 = 1.000
==== e(  52) =   -46.34548 eV ==== 
     psi = 0.177*[# 159]+0.177*[# 172]+0.177*[# 185]+0.177*[# 198]+0.056*[# 133]+
          +0.056*[# 146]+0.056*[# 107]+0.056*[# 120]+0.006*[#  55]+0.006*[#  68]+
          +0.006*[#  81]+0.006*[#  94]+0.006*[# 211]+0.006*[# 224]+0.006*[# 237]+
          +0.006*[# 250]+0.003*[#   3]+0.003*[#  16]+0.003*[#  29]+0.003*[#  42]+
          +0.001*[# 162]+0.001*[# 175]+0.001*[# 188]+0.001*[# 201]+
    |psi|^2 = 1.000
==== e(  53) =   -46.29158 eV ==== 
     psi = 0.317*[# 185]+0.317*[# 198]+0.075*[# 135]+0.075*[# 148]+0.047*[# 108]+
          +0.047*[# 121]+0.036*[#  81]+0.036*[#  94]+0.009*[# 212]+0.009*[# 225]+
          +0.007*[#  31]+0.007*[#  44]+0.004*[# 188]+0.004*[# 201]+0.001*[# 215]+
          +0.001*[# 228]+
    |psi|^2 = 1.000
==== e(  54) =   -46.29154 eV ==== 
     psi = 0.317*[# 159]+0.317*[# 172]+0.075*[# 109]+0.075*[# 122]+0.047*[# 134]+
          +0.047*[# 147]+0.036*[#  55]+0.036*[#  68]+0.009*[# 238]+0.009*[# 251]+
          +0.007*[#   5]+0.007*[#  18]+0.004*[# 162]+0.004*[# 175]+0.001*[# 241]+
          +0.001*[# 254]+
    |psi|^2 = 1.000
==== e(  55) =   -46.26667 eV ==== 
     psi = 0.118*[# 108]+0.118*[# 121]+0.118*[# 134]+0.118*[# 147]+0.091*[#  56]+
          +0.091*[#  69]+0.091*[#  82]+0.091*[#  95]+0.020*[# 160]+0.020*[# 173]+
          +0.020*[# 186]+0.020*[# 199]+0.019*[#   4]+0.019*[#  17]+0.019*[#  30]+
          +0.019*[#  43]+
    |psi|^2 = 1.000
==== e(  56) =   -46.26570 eV ==== 
     psi = 0.102*[#  55]+0.102*[#  68]+0.102*[#  81]+0.102*[#  94]+0.070*[# 159]+
          +0.070*[# 172]+0.070*[# 185]+0.070*[# 198]+0.052*[# 107]+0.052*[# 120]+
          +0.052*[# 133]+0.052*[# 146]+0.018*[#   3]+0.018*[#  16]+0.018*[#  29]+
          +0.018*[#  42]+0.003*[# 211]+0.003*[# 224]+0.003*[# 237]+0.003*[# 250]+
          +0.002*[# 106]+0.002*[# 119]+0.002*[# 132]+0.002*[# 145]+0.001*[#  58]+
          +0.001*[#  71]+0.001*[#  84]+0.001*[#  97]+
    |psi|^2 = 1.000
==== e(  57) =   -46.22822 eV ==== 
     psi = 0.211*[# 160]+0.211*[# 173]+0.211*[# 186]+0.211*[# 199]+0.020*[# 108]+
          +0.020*[# 121]+0.020*[# 134]+0.020*[# 147]+0.007*[# 163]+0.007*[# 176]+
          +0.007*[# 189]+0.007*[# 202]+0.006*[#   4]+0.006*[#  17]+0.006*[#  30]+
          +0.006*[#  43]+0.003*[#  56]+0.003*[#  69]+0.003*[#  82]+0.003*[#  95]+
          +0.002*[# 212]+0.002*[# 225]+0.002*[# 238]+0.002*[# 251]+
    |psi|^2 = 1.000
==== e(  58) =   -46.21721 eV ==== 
     psi = 0.194*[# 187]+0.194*[# 200]+0.182*[# 133]+0.182*[# 146]+0.059*[# 160]+
          +0.059*[# 173]+0.049*[#  83]+0.049*[#  96]+0.008*[# 190]+0.008*[# 203]+
          +0.002*[# 136]+0.002*[# 149]+0.002*[#  56]+0.002*[#  69]+0.001*[#  86]+
          +0.001*[#  99]+0.001*[# 163]+0.001*[# 176]+
    |psi|^2 = 1.000
==== e(  59) =   -46.21719 eV ==== 
     psi = 0.194*[# 161]+0.194*[# 174]+0.182*[# 107]+0.182*[# 120]+0.059*[# 186]+
          +0.059*[# 199]+0.049*[#  57]+0.049*[#  70]+0.008*[# 164]+0.008*[# 177]+
          +0.002*[# 110]+0.002*[# 123]+0.002*[#  82]+0.002*[#  95]+0.001*[#  60]+
          +0.001*[#  73]+0.001*[# 189]+0.001*[# 202]+
    |psi|^2 = 1.000
==== e(  60) =   -46.21384 eV ==== 
     psi = 0.112*[#  55]+0.112*[#  68]+0.112*[#  81]+0.112*[#  94]+0.075*[# 107]+
          +0.075*[# 120]+0.075*[# 133]+0.075*[# 146]+0.049*[# 159]+0.049*[# 172]+
          +0.049*[# 185]+0.049*[# 198]+0.010*[#   3]+0.010*[#  16]+0.010*[#  29]+
          +0.010*[#  42]+
    |psi|^2 = 1.000
==== e(  61) =   -46.21351 eV ==== 
     psi = 0.215*[#   4]+0.215*[#  17]+0.215*[#  30]+0.215*[#  43]+0.018*[#  56]+
          +0.018*[#  69]+0.018*[#  82]+0.018*[#  95]+0.009*[# 160]+0.009*[# 173]+
          +0.009*[# 186]+0.009*[# 199]+0.007*[#   7]+0.007*[#  20]+0.007*[#  33]+
          +0.007*[#  46]+
    |psi|^2 = 1.000
==== e(  62) =   -46.19865 eV ==== 
     psi = 0.200*[#  55]+0.200*[#  68]+0.179*[#   5]+0.179*[#  18]+0.057*[# 109]+
          +0.057*[# 122]+0.043*[#  30]+0.043*[#  43]+0.007*[#   8]+0.007*[#  21]+
          +0.004*[# 159]+0.004*[# 172]+0.003*[# 134]+0.003*[# 147]+0.002*[#  58]+
          +0.002*[#  71]+0.001*[# 112]+0.001*[# 125]+
    |psi|^2 = 1.000
==== e(  63) =   -46.19865 eV ==== 
     psi = 0.200*[#  81]+0.200*[#  94]+0.179*[#  31]+0.179*[#  44]+0.057*[# 135]+
          +0.057*[# 148]+0.043*[#   4]+0.043*[#  17]+0.007*[#  34]+0.007*[#  47]+
          +0.004*[# 185]+0.004*[# 198]+0.003*[# 108]+0.003*[# 121]+0.002*[#  84]+
          +0.002*[#  97]+0.001*[# 138]+0.001*[# 151]+
    |psi|^2 = 1.000
==== e(  64) =   -46.19455 eV ==== 
     psi = 0.129*[#  56]+0.129*[#  69]+0.129*[#  82]+0.129*[#  95]+0.102*[# 108]+
          +0.102*[# 121]+0.102*[# 134]+0.102*[# 147]+0.008*[#   4]+0.008*[#  17]+
          +0.008*[#  30]+0.008*[#  43]+0.006*[# 160]+0.006*[# 173]+0.006*[# 186]+
          +0.006*[# 199]+0.002*[#  59]+0.002*[#  72]+0.002*[#  85]+0.002*[#  98]+
          +0.002*[# 111]+0.002*[# 124]+0.002*[# 137]+0.002*[# 150]+
    |psi|^2 = 1.000
==== e(  65) =   -46.15418 eV ==== 
     psi = 0.179*[# 107]+0.179*[# 120]+0.149*[# 186]+0.149*[# 199]+0.093*[# 161]+
          +0.093*[# 174]+0.059*[#  57]+0.059*[#  70]+0.005*[#  82]+0.005*[#  95]+
          +0.005*[# 189]+0.005*[# 202]+0.004*[# 164]+0.004*[# 177]+0.002*[#  60]+
          +0.002*[#  73]+0.002*[# 110]+0.002*[# 123]+0.001*[# 211]+0.001*[# 224]+
    |psi|^2 = 1.000
==== e(  66) =   -46.15417 eV ==== 
     psi = 0.179*[# 133]+0.179*[# 146]+0.149*[# 160]+0.149*[# 173]+0.093*[# 187]+
          +0.093*[# 200]+0.059*[#  83]+0.059*[#  96]+0.005*[#  56]+0.005*[#  69]+
          +0.005*[# 163]+0.005*[# 176]+0.004*[# 190]+0.004*[# 203]+0.002*[#  86]+
          +0.002*[#  99]+0.002*[# 136]+0.002*[# 149]+0.001*[# 237]+0.001*[# 250]+
    |psi|^2 = 1.000
==== e(  67) =   -46.14083 eV ==== 
     psi = 0.242*[# 161]+0.242*[# 174]+0.242*[# 187]+0.242*[# 200]+0.008*[# 164]+
          +0.008*[# 177]+0.008*[# 190]+0.008*[# 203]+
    |psi|^2 = 1.000
==== e(  68) =   -46.13981 eV ==== 
     psi = 0.157*[#  55]+0.157*[#  68]+0.155*[#  30]+0.155*[#  43]+0.117*[#   5]+
          +0.117*[#  18]+0.053*[# 109]+0.053*[# 122]+0.005*[#   8]+0.005*[#  21]+
          +0.004*[#  33]+0.004*[#  46]+0.002*[# 134]+0.002*[# 147]+0.002*[#  58]+
          +0.002*[#  71]+0.002*[# 112]+0.002*[# 125]+
    |psi|^2 = 1.000
==== e(  69) =   -46.13981 eV ==== 
     psi = 0.157*[#  81]+0.157*[#  94]+0.155*[#   4]+0.155*[#  17]+0.117*[#  31]+
          +0.117*[#  44]+0.053*[# 135]+0.053*[# 148]+0.005*[#  34]+0.005*[#  47]+
          +0.004*[#   7]+0.004*[#  20]+0.002*[# 108]+0.002*[# 121]+0.002*[#  84]+
          +0.002*[#  97]+0.002*[# 138]+0.002*[# 151]+
    |psi|^2 = 1.000
==== e(  70) =   -46.11746 eV ==== 
     psi = 0.122*[# 108]+0.122*[# 121]+0.122*[# 134]+0.122*[# 147]+0.090*[#  56]+
          +0.090*[#  69]+0.090*[#  82]+0.090*[#  95]+0.015*[# 160]+0.015*[# 173]+
          +0.015*[# 186]+0.015*[# 199]+0.015*[#   4]+0.015*[#  17]+0.015*[#  30]+
          +0.015*[#  43]+0.004*[# 111]+0.004*[# 124]+0.004*[# 137]+0.004*[# 150]+
          +0.003*[#  59]+0.003*[#  72]+0.003*[#  85]+0.003*[#  98]+
    |psi|^2 = 1.000
==== e(  71) =   -46.11523 eV ==== 
     psi = 0.242*[#   5]+0.242*[#  18]+0.242*[#  31]+0.242*[#  44]+0.008*[#   8]+
          +0.008*[#  21]+0.008*[#  34]+0.008*[#  47]+
    |psi|^2 = 1.000
==== e(  72) =   -46.10087 eV ==== 
     psi = 0.114*[# 107]+0.114*[# 120]+0.114*[# 133]+0.114*[# 146]+0.106*[#  55]+
          +0.106*[#  68]+0.105*[#  81]+0.105*[#  94]+0.019*[# 159]+0.019*[# 172]+
          +0.019*[# 185]+0.019*[# 198]+0.007*[#   3]+0.007*[#  16]+0.007*[#  29]+
          +0.007*[#  42]+0.001*[#   2]+0.001*[#  15]+0.001*[#  28]+0.001*[#  41]+
    |psi|^2 = 1.000
==== e(  73) =   -46.08534 eV ==== 
     psi = 0.114*[# 107]+0.114*[# 120]+0.114*[# 133]+0.114*[# 146]+0.111*[#  55]+
          +0.111*[#  68]+0.111*[#  81]+0.111*[#  94]+0.013*[# 159]+0.013*[# 172]+
          +0.013*[# 185]+0.013*[# 198]+0.004*[#   3]+0.004*[#  16]+0.004*[#  29]+
          +0.004*[#  42]+0.003*[# 110]+0.003*[# 123]+0.003*[# 136]+0.003*[# 149]+
          +0.002*[#  58]+0.002*[#  71]+0.002*[#  84]+0.002*[#  97]+
    |psi|^2 = 1.000
==== e(  74) =   -46.06171 eV ==== 
     psi = 0.235*[#  56]+0.235*[#  69]+0.163*[#  83]+0.163*[#  96]+0.053*[# 133]+
          +0.053*[# 146]+0.012*[#  82]+0.012*[#  95]+0.008*[#  57]+0.008*[#  70]+
          +0.008*[#  86]+0.008*[#  99]+0.005*[# 160]+0.005*[# 173]+0.005*[#  59]+
          +0.005*[#  72]+0.005*[#  29]+0.005*[#  42]+0.003*[# 107]+0.003*[# 120]+
          +0.001*[# 136]+0.001*[# 149]+
    |psi|^2 = 1.000
==== e(  75) =   -46.06171 eV ==== 
     psi = 0.235*[#  82]+0.235*[#  95]+0.163*[#  57]+0.163*[#  70]+0.053*[# 107]+
          +0.053*[# 120]+0.012*[#  56]+0.012*[#  69]+0.008*[#  60]+0.008*[#  73]+
          +0.008*[#  83]+0.008*[#  96]+0.005*[# 186]+0.005*[# 199]+0.005*[#  85]+
          +0.005*[#  98]+0.005*[#   3]+0.005*[#  16]+0.003*[# 133]+0.003*[# 146]+
          +0.001*[# 110]+0.001*[# 123]+
    |psi|^2 = 1.000
==== e(  76) =   -46.05360 eV ==== 
     psi = 0.222*[# 134]+0.222*[# 147]+0.188*[# 109]+0.188*[# 122]+0.048*[#  55]+
          +0.048*[#  68]+0.010*[# 159]+0.010*[# 172]+0.008*[# 112]+0.008*[# 125]+
          +0.006*[# 137]+0.006*[# 150]+0.005*[#  30]+0.005*[#  43]+0.005*[# 108]+
          +0.005*[# 121]+0.004*[# 135]+0.004*[# 148]+
    |psi|^2 = 1.000
==== e(  77) =   -46.05360 eV ==== 
     psi = 0.222*[# 108]+0.222*[# 121]+0.188*[# 135]+0.188*[# 148]+0.048*[#  81]+
          +0.048*[#  94]+0.010*[# 185]+0.010*[# 198]+0.008*[# 138]+0.008*[# 151]+
          +0.006*[# 111]+0.006*[# 124]+0.005*[#   4]+0.005*[#  17]+0.005*[# 134]+
          +0.005*[# 147]+0.004*[# 109]+0.004*[# 122]+
    |psi|^2 = 1.000
==== e(  78) =   -46.05290 eV ==== 
     psi = 0.132*[#  56]+0.132*[#  69]+0.132*[#  82]+0.132*[#  95]+0.100*[# 108]+
          +0.100*[# 121]+0.100*[# 134]+0.100*[# 147]+0.007*[#   4]+0.007*[#  17]+
          +0.007*[#  30]+0.007*[#  43]+0.005*[# 160]+0.005*[# 173]+0.005*[# 186]+
          +0.005*[# 199]+0.004*[#  59]+0.004*[#  72]+0.004*[#  85]+0.004*[#  98]+
          +0.003*[# 111]+0.003*[# 124]+0.003*[# 137]+0.003*[# 150]+
    |psi|^2 = 1.000
==== e(  79) =   -46.05189 eV ==== 
     psi = 0.242*[#  57]+0.242*[#  70]+0.242*[#  83]+0.242*[#  96]+0.008*[#  60]+
          +0.008*[#  73]+0.008*[#  86]+0.008*[#  99]+
    |psi|^2 = 1.000
==== e(  80) =   -46.02724 eV ==== 
     psi = 0.242*[# 109]+0.242*[# 122]+0.242*[# 135]+0.242*[# 148]+0.008*[# 112]+
          +0.008*[# 125]+0.008*[# 138]+0.008*[# 151]+
    |psi|^2 = 1.000
==== e(  81) =   -10.28526 eV ==== 
     psi = 0.142*[# 261]+0.142*[# 265]+0.142*[# 269]+0.142*[# 273]+0.066*[# 214]+
          +0.066*[# 227]+0.066*[# 240]+0.066*[# 253]+0.026*[# 210]+0.026*[# 223]+
          +0.026*[# 236]+0.026*[# 249]+0.006*[# 162]+0.006*[# 175]+0.006*[# 188]+
          +0.006*[# 201]+0.003*[# 158]+0.003*[# 171]+0.003*[# 184]+0.003*[# 197]+
          +0.002*[# 209]+0.002*[# 222]+0.002*[# 235]+0.002*[# 248]+0.001*[# 217]+
          +0.001*[# 230]+0.001*[# 243]+0.001*[# 256]+
    |psi|^2 = 0.998
==== e(  82) =    -5.90016 eV ==== 
     psi = 0.434*[# 265]+0.434*[# 273]+0.024*[# 241]+0.024*[# 254]+0.017*[# 244]+
          +0.017*[# 257]+0.012*[# 216]+0.012*[# 229]+0.006*[# 219]+0.006*[# 232]+
          +0.002*[# 266]+0.002*[# 274]+
    |psi|^2 = 0.994
==== e(  83) =    -5.90013 eV ==== 
     psi = 0.434*[# 261]+0.434*[# 269]+0.024*[# 215]+0.024*[# 228]+0.017*[# 218]+
          +0.017*[# 231]+0.012*[# 242]+0.012*[# 255]+0.006*[# 245]+0.006*[# 258]+
          +0.002*[# 262]+0.002*[# 270]+
    |psi|^2 = 0.994
==== e(  84) =    -3.49408 eV ==== 
     psi = 0.218*[# 261]+0.218*[# 265]+0.218*[# 269]+0.218*[# 273]+0.010*[# 220]+
          +0.010*[# 233]+0.010*[# 246]+0.010*[# 259]+0.008*[# 210]+0.008*[# 223]+
          +0.008*[# 236]+0.008*[# 249]+0.008*[# 214]+0.008*[# 227]+0.008*[# 240]+
          +0.008*[# 253]+0.003*[# 217]+0.003*[# 230]+0.003*[# 243]+0.003*[# 256]+
          +0.002*[# 262]+0.002*[# 266]+0.002*[# 270]+0.002*[# 274]+
    |psi|^2 = 0.996
==== e(  85) =    -1.72249 eV ==== 
     psi = 0.272*[# 263]+0.272*[# 271]+0.160*[# 268]+0.160*[# 276]+0.021*[# 210]+
          +0.021*[# 223]+0.017*[# 214]+0.017*[# 227]+0.012*[# 217]+0.012*[# 230]+
          +0.008*[# 247]+0.008*[# 260]+0.001*[# 189]+0.001*[# 202]+0.001*[# 209]+
          +0.001*[# 220]+0.001*[# 222]+0.001*[# 233]+
    |psi|^2 = 0.993
==== e(  86) =    -1.72243 eV ==== 
     psi = 0.273*[# 267]+0.273*[# 275]+0.160*[# 264]+0.160*[# 272]+0.021*[# 236]+
          +0.021*[# 249]+0.017*[# 240]+0.017*[# 253]+0.012*[# 243]+0.012*[# 256]+
          +0.008*[# 221]+0.008*[# 234]+0.001*[# 163]+0.001*[# 176]+0.001*[# 235]+
          +0.001*[# 246]+0.001*[# 248]+0.001*[# 259]+
    |psi|^2 = 0.993
==== e(  87) =    -1.07495 eV ==== 
     psi = 0.217*[# 264]+0.217*[# 268]+0.217*[# 272]+0.217*[# 276]+0.023*[# 219]+
          +0.023*[# 232]+0.023*[# 245]+0.023*[# 258]+0.008*[# 216]+0.008*[# 229]+
          +0.008*[# 242]+0.008*[# 255]+
    |psi|^2 = 0.994
==== e(  88) =    -0.83983 eV ==== 
     psi = 0.079*[# 262]+0.079*[# 266]+0.079*[# 270]+0.079*[# 274]+0.060*[# 210]+
          +0.060*[# 223]+0.060*[# 236]+0.060*[# 249]+0.032*[# 158]+0.032*[# 171]+
          +0.032*[# 184]+0.032*[# 197]+0.016*[# 106]+0.016*[# 119]+0.016*[# 132]+
          +0.016*[# 145]+0.014*[# 214]+0.014*[# 227]+0.014*[# 240]+0.014*[# 253]+
          +0.009*[# 261]+0.009*[# 265]+0.009*[# 269]+0.009*[# 273]+0.008*[# 209]+
          +0.008*[# 222]+0.008*[# 235]+0.008*[# 248]+0.007*[#  54]+0.007*[#  67]+
          +0.007*[#  80]+0.007*[#  93]+0.006*[# 157]+0.006*[# 170]+0.006*[# 183]+
          +0.006*[# 196]+0.004*[# 162]+0.004*[# 175]+0.004*[# 188]+0.004*[# 201]+
          +0.004*[# 217]+0.004*[# 230]+0.004*[# 243]+0.004*[# 256]+0.002*[# 110]+
          +0.002*[# 123]+0.002*[# 136]+0.002*[# 149]+0.002*[#   2]+0.002*[#  15]+
          +0.002*[#  28]+0.002*[#  41]+0.002*[#  58]+0.002*[#  71]+0.002*[#  84]+
          +0.002*[#  97]+0.002*[# 105]+0.002*[# 118]+0.002*[# 131]+0.002*[# 144]+
          +0.001*[#   6]+0.001*[#  19]+0.001*[#  32]+0.001*[#  45]+
    |psi|^2 = 0.992
==== e(  89) =    -0.13307 eV ==== 
     psi = 0.060*[#  54]+0.060*[#  67]+0.060*[#  80]+0.060*[#  93]+0.046*[# 106]+
          +0.046*[# 119]+0.046*[# 132]+0.046*[# 145]+0.032*[#   2]+0.032*[#  15]+
          +0.032*[#  28]+0.032*[#  41]+0.029*[# 262]+0.029*[# 266]+0.029*[# 270]+
          +0.029*[# 274]+0.022*[# 162]+0.022*[# 175]+0.022*[# 188]+0.022*[# 201]+
          +0.010*[# 158]+0.010*[# 171]+0.010*[# 184]+0.010*[# 197]+0.009*[#   6]+
          +0.009*[#  19]+0.009*[#  32]+0.009*[#  45]+0.009*[#  53]+0.009*[#  66]+
          +0.009*[#  79]+0.009*[#  92]+0.007*[# 105]+0.007*[# 118]+0.007*[# 131]+
          +0.007*[# 144]+0.006*[# 110]+0.006*[# 123]+0.006*[# 136]+0.006*[# 149]+
          +0.004*[# 210]+0.004*[# 223]+0.004*[# 236]+0.004*[# 249]+0.003*[# 261]+
          +0.003*[# 265]+0.003*[# 269]+0.003*[# 273]+0.003*[#   1]+0.003*[#  14]+
          +0.003*[#  27]+0.003*[#  40]+0.002*[# 217]+0.002*[# 230]+0.002*[# 243]+
          +0.002*[# 256]+0.001*[# 209]+0.001*[# 222]+0.001*[# 235]+0.001*[# 248]+
          +0.001*[# 214]+0.001*[# 227]+0.001*[# 240]+0.001*[# 253]+
    |psi|^2 = 0.996
==== e(  90) =     0.91595 eV ==== 
     psi = 0.040*[#   2]+0.040*[#  15]+0.040*[#  28]+0.040*[#  41]+0.036*[# 110]+
          +0.036*[# 123]+0.036*[# 136]+0.036*[# 149]+0.035*[# 158]+0.035*[# 171]+
          +0.035*[# 184]+0.035*[# 197]+0.031*[#  58]+0.031*[#  71]+0.031*[#  84]+
          +0.031*[#  97]+0.030*[# 262]+0.030*[# 266]+0.030*[# 270]+0.030*[# 274]+
          +0.016*[#  54]+0.016*[#  67]+0.016*[#  80]+0.016*[#  93]+0.010*[# 214]+
          +0.010*[# 227]+0.010*[# 240]+0.010*[# 253]+0.009*[# 106]+0.009*[# 119]+
          +0.009*[# 132]+0.009*[# 145]+0.007*[# 157]+0.007*[# 170]+0.007*[# 183]+
          +0.007*[# 196]+0.006*[#   1]+0.006*[#  14]+0.006*[#  27]+0.006*[#  40]+
          +0.004*[# 165]+0.004*[# 178]+0.004*[# 191]+0.004*[# 204]+0.004*[#  53]+
          +0.004*[#  66]+0.004*[#  79]+0.004*[#  92]+0.003*[# 217]+0.003*[# 230]+
          +0.003*[# 243]+0.003*[# 256]+0.003*[# 105]+0.003*[# 118]+0.003*[# 131]+
          +0.003*[# 144]+0.003*[# 162]+0.003*[# 175]+0.003*[# 188]+0.003*[# 201]+
          +0.002*[#   9]+0.002*[#  22]+0.002*[#  35]+0.002*[#  48]+0.002*[#   6]+
          +0.002*[#  19]+0.002*[#  32]+0.002*[#  45]+0.002*[# 261]+0.002*[# 265]+
          +0.002*[# 269]+0.002*[# 273]+0.001*[#  61]+0.001*[#  74]+0.001*[#  87]+
          +0.001*[# 100]+0.001*[# 107]+0.001*[# 120]+0.001*[# 133]+0.001*[# 146]+
          +0.001*[# 211]+0.001*[# 224]+0.001*[# 237]+0.001*[# 250]+
    |psi|^2 = 0.996
==== e(  91) =     2.17573 eV ==== 
     psi = 0.041*[#  58]+0.041*[#  71]+0.041*[#  84]+0.041*[#  97]+0.038*[#   2]+
          +0.038*[#  15]+0.038*[#  28]+0.038*[#  41]+0.022*[# 165]+0.022*[# 178]+
          +0.022*[# 191]+0.022*[# 204]+0.021*[#   9]+0.021*[#  22]+0.021*[#  35]+
          +0.021*[#  48]+0.020*[# 158]+0.020*[# 171]+0.020*[# 184]+0.020*[# 197]+
          +0.016*[# 262]+0.016*[# 266]+0.016*[# 270]+0.016*[# 274]+0.016*[# 113]+
          +0.016*[# 126]+0.016*[# 139]+0.016*[# 152]+0.015*[# 106]+0.015*[# 110]+
          +0.015*[# 119]+0.015*[# 123]+0.015*[# 132]+0.015*[# 136]+0.015*[# 145]+
          +0.015*[# 149]+0.012*[# 162]+0.012*[# 175]+0.012*[# 188]+0.012*[# 201]+
          +0.009*[# 214]+0.009*[# 227]+0.009*[# 240]+0.009*[# 253]+0.004*[#   1]+
          +0.004*[#  14]+0.004*[#  27]+0.004*[#  40]+0.004*[# 105]+0.004*[# 118]+
          +0.004*[# 131]+0.004*[# 144]+0.002*[# 157]+0.002*[# 170]+0.002*[# 183]+
          +0.002*[# 196]+0.002*[#  61]+0.002*[#  74]+0.002*[#  87]+0.002*[# 100]+
          +0.002*[#   6]+0.002*[#  19]+0.002*[#  32]+0.002*[#  45]+0.002*[#  54]+
          +0.002*[#  67]+0.002*[#  80]+0.002*[#  93]+0.002*[#  55]+0.002*[#  68]+
          +0.002*[#  81]+0.002*[#  94]+0.001*[# 217]+0.001*[# 230]+0.001*[# 243]+
          +0.001*[# 256]+0.001*[# 210]+0.001*[# 223]+0.001*[# 236]+0.001*[# 249]+
    |psi|^2 = 0.997
==== e(  92) =     2.51674 eV ==== 
     psi = 0.168*[# 220]+0.168*[# 233]+0.168*[# 246]+0.168*[# 259]+0.034*[# 262]+
          +0.034*[# 266]+0.034*[# 270]+0.034*[# 274]+0.012*[# 165]+0.012*[# 178]+
          +0.012*[# 191]+0.012*[# 204]+0.011*[# 261]+0.011*[# 265]+0.011*[# 269]+
          +0.011*[# 273]+0.006*[# 116]+0.006*[# 129]+0.006*[# 142]+0.006*[# 155]+
          +0.006*[# 217]+0.006*[# 230]+0.006*[# 243]+0.006*[# 256]+0.003*[# 210]+
          +0.003*[# 223]+0.003*[# 236]+0.003*[# 249]+0.002*[# 158]+0.002*[# 171]+
          +0.002*[# 184]+0.002*[# 197]+0.001*[# 162]+0.001*[# 175]+0.001*[# 188]+
          +0.001*[# 201]+
    |psi|^2 = 0.990
==== e(  93) =     2.65089 eV ==== 
     psi = 0.169*[# 266]+0.169*[# 274]+0.142*[# 244]+0.142*[# 257]+0.070*[# 219]+
          +0.070*[# 232]+0.034*[# 195]+0.034*[# 208]+0.021*[# 265]+0.021*[# 273]+
          +0.020*[# 158]+0.020*[# 171]+0.011*[# 140]+0.011*[# 153]+0.010*[# 115]+
          +0.010*[# 128]+0.007*[# 168]+0.007*[# 181]+0.004*[# 165]+0.004*[# 178]+
          +0.002*[#  91]+0.002*[# 104]+0.001*[#  54]+0.001*[#  67]+0.001*[# 137]+
          +0.001*[# 150]+0.001*[# 162]+0.001*[# 175]+
    |psi|^2 = 0.996
==== e(  94) =     2.65090 eV ==== 
     psi = 0.169*[# 262]+0.169*[# 270]+0.142*[# 218]+0.142*[# 231]+0.070*[# 245]+
          +0.070*[# 258]+0.034*[# 169]+0.034*[# 182]+0.021*[# 261]+0.021*[# 269]+
          +0.020*[# 184]+0.020*[# 197]+0.011*[# 114]+0.011*[# 127]+0.010*[# 141]+
          +0.010*[# 154]+0.007*[# 194]+0.007*[# 207]+0.004*[# 191]+0.004*[# 204]+
          +0.002*[#  65]+0.002*[#  78]+0.001*[#  80]+0.001*[#  93]+0.001*[# 111]+
          +0.001*[# 124]+0.001*[# 188]+0.001*[# 201]+
    |psi|^2 = 0.996
==== e(  95) =     2.82699 eV ==== 
     psi = 0.070*[#  61]+0.070*[#  74]+0.070*[#  87]+0.070*[# 100]+0.051*[# 113]+
          +0.051*[# 126]+0.051*[# 139]+0.051*[# 152]+0.041*[#   9]+0.041*[#  22]+
          +0.041*[#  35]+0.041*[#  48]+0.017*[#  54]+0.017*[#  67]+0.017*[#  80]+
          +0.017*[#  93]+0.016*[#   2]+0.016*[#  15]+0.016*[#  28]+0.016*[#  41]+
          +0.015*[# 165]+0.015*[# 178]+0.015*[# 191]+0.015*[# 204]+0.012*[# 106]+
          +0.012*[# 119]+0.012*[# 132]+0.012*[# 145]+0.007*[#   6]+0.007*[#  19]+
          +0.007*[#  32]+0.007*[#  45]+0.007*[# 162]+0.007*[# 175]+0.007*[# 188]+
          +0.007*[# 201]+0.003*[# 110]+0.003*[# 123]+0.003*[# 136]+0.003*[# 149]+
          +0.002*[# 158]+0.002*[# 171]+0.002*[# 184]+0.002*[# 197]+
    |psi|^2 = 0.998
==== e(  96) =     2.99466 eV ==== 
     psi = 0.128*[# 168]+0.128*[# 181]+0.128*[# 194]+0.128*[# 207]+0.062*[#  64]+
          +0.062*[#  77]+0.062*[#  90]+0.062*[# 103]+0.022*[# 113]+0.022*[# 126]+
          +0.022*[# 139]+0.022*[# 152]+0.010*[# 217]+0.010*[# 230]+0.010*[# 243]+
          +0.010*[# 256]+0.006*[# 158]+0.006*[# 171]+0.006*[# 184]+0.006*[# 197]+
          +0.005*[# 106]+0.005*[# 119]+0.005*[# 132]+0.005*[# 145]+0.004*[#   9]+
          +0.004*[#  22]+0.004*[#  35]+0.004*[#  48]+0.003*[#  54]+0.003*[#  67]+
          +0.003*[#  80]+0.003*[#  93]+0.002*[# 210]+0.002*[# 214]+0.002*[# 223]+
          +0.002*[# 227]+0.002*[# 236]+0.002*[# 240]+0.002*[# 249]+0.002*[# 253]+
    |psi|^2 = 0.997
==== e(  97) =     3.00558 eV ==== 
     psi = 0.079*[# 143]+0.079*[# 156]+0.073*[# 167]+0.073*[# 180]+0.068*[# 192]+
          +0.068*[# 205]+0.068*[# 247]+0.068*[# 260]+0.040*[#  88]+0.040*[# 101]+
          +0.038*[#  63]+0.038*[#  76]+0.037*[# 106]+0.037*[# 119]+0.020*[# 220]+
          +0.020*[# 233]+0.019*[# 116]+0.019*[# 129]+0.017*[# 210]+0.017*[# 223]+
          +0.011*[#  39]+0.011*[#  52]+0.005*[#   2]+0.005*[#  15]+0.005*[# 113]+
          +0.005*[# 126]+0.005*[# 263]+0.005*[# 271]+0.003*[#  12]+0.003*[#  25]+
          +0.002*[# 214]+0.002*[# 227]+0.002*[#  85]+0.002*[#  98]+0.002*[# 217]+
          +0.002*[# 230]+0.001*[#  60]+0.001*[#  73]+
    |psi|^2 = 0.998
==== e(  98) =     3.00562 eV ==== 
     psi = 0.079*[# 117]+0.079*[# 130]+0.073*[# 193]+0.073*[# 206]+0.068*[# 166]+
          +0.068*[# 179]+0.068*[# 221]+0.068*[# 234]+0.040*[#  62]+0.040*[#  75]+
          +0.038*[#  89]+0.038*[# 102]+0.037*[# 132]+0.037*[# 145]+0.020*[# 246]+
          +0.020*[# 259]+0.019*[# 142]+0.019*[# 155]+0.017*[# 236]+0.017*[# 249]+
          +0.011*[#  13]+0.011*[#  26]+0.005*[#  28]+0.005*[#  41]+0.005*[# 139]+
          +0.005*[# 152]+0.005*[# 267]+0.005*[# 275]+0.003*[#  38]+0.003*[#  51]+
          +0.002*[# 240]+0.002*[# 253]+0.002*[#  59]+0.002*[#  72]+0.002*[# 243]+
          +0.002*[# 256]+0.001*[#  86]+0.001*[#  99]+
    |psi|^2 = 0.998
==== e(  99) =     3.06119 eV ==== 
     psi = 0.080*[# 115]+0.080*[# 128]+0.080*[# 141]+0.080*[# 154]+0.077*[# 167]+
          +0.077*[# 180]+0.077*[# 193]+0.077*[# 206]+0.050*[#  63]+0.050*[#  76]+
          +0.050*[#  89]+0.050*[# 102]+0.021*[# 219]+0.021*[# 232]+0.021*[# 245]+
          +0.021*[# 258]+0.013*[#  11]+0.013*[#  24]+0.013*[#  37]+0.013*[#  50]+
          +0.003*[# 216]+0.003*[# 229]+0.003*[# 242]+0.003*[# 255]+0.002*[# 264]+
          +0.002*[# 268]+0.002*[# 272]+0.002*[# 276]+0.001*[#   8]+0.001*[#  21]+
          +0.001*[#  34]+0.001*[#  47]+
    |psi|^2 = 0.995
==== e( 100) =     3.09416 eV ==== 
     psi = 0.095*[#  91]+0.095*[# 104]+0.068*[# 140]+0.068*[# 153]+0.065*[# 115]+
          +0.065*[# 128]+0.046*[# 266]+0.046*[# 274]+0.042*[#  54]+0.042*[#  67]+
          +0.032*[#  36]+0.032*[#  49]+0.032*[# 195]+0.032*[# 208]+0.029*[#  11]+
          +0.029*[#  24]+0.024*[#  64]+0.024*[#  77]+0.012*[# 158]+0.012*[# 171]+
          +0.009*[# 241]+0.009*[# 244]+0.009*[# 254]+0.009*[# 257]+0.009*[# 168]+
          +0.009*[# 181]+0.005*[#  61]+0.005*[#  74]+0.005*[#  33]+0.005*[#  46]+
          +0.005*[# 265]+0.005*[# 273]+0.004*[# 216]+0.004*[# 229]+0.003*[#   8]+
          +0.003*[#  21]+0.001*[# 162]+0.001*[# 175]+0.001*[# 137]+0.001*[# 150]+
    |psi|^2 = 0.998
==== e( 101) =     3.09417 eV ==== 
     psi = 0.095*[#  65]+0.095*[#  78]+0.068*[# 114]+0.068*[# 127]+0.065*[# 141]+
          +0.065*[# 154]+0.046*[# 262]+0.046*[# 270]+0.042*[#  80]+0.042*[#  93]+
          +0.032*[#  10]+0.032*[#  23]+0.032*[# 169]+0.032*[# 182]+0.029*[#  37]+
          +0.029*[#  50]+0.024*[#  90]+0.024*[# 103]+0.012*[# 184]+0.012*[# 197]+
          +0.009*[# 215]+0.009*[# 218]+0.009*[# 228]+0.009*[# 231]+0.009*[# 194]+
          +0.009*[# 207]+0.005*[#  87]+0.005*[# 100]+0.005*[#   7]+0.005*[#  20]+
          +0.005*[# 261]+0.005*[# 269]+0.004*[# 242]+0.004*[# 255]+0.003*[#  34]+
          +0.003*[#  47]+0.001*[# 188]+0.001*[# 201]+0.001*[# 111]+0.001*[# 124]+
    |psi|^2 = 0.998
==== e( 102) =     3.16903 eV ==== 
     psi = 0.139*[# 116]+0.139*[# 129]+0.139*[# 142]+0.139*[# 155]+0.049*[#  12]+
          +0.049*[#  25]+0.049*[#  38]+0.049*[#  51]+0.025*[#  61]+0.025*[#  74]+
          +0.025*[#  87]+0.025*[# 100]+0.007*[# 220]+0.007*[# 233]+0.007*[# 246]+
          +0.007*[# 259]+0.007*[# 165]+0.007*[# 178]+0.007*[# 191]+0.007*[# 204]+
          +0.004*[# 106]+0.004*[# 119]+0.004*[# 132]+0.004*[# 145]+0.004*[#  54]+
          +0.004*[#  67]+0.004*[#  80]+0.004*[#  93]+0.003*[# 113]+0.003*[# 126]+
          +0.003*[# 139]+0.003*[# 152]+0.003*[# 162]+0.003*[# 175]+0.003*[# 188]+
          +0.003*[# 201]+0.002*[# 262]+0.002*[# 266]+0.002*[# 270]+0.002*[# 274]+
          +0.002*[#   2]+0.002*[#  15]+0.002*[#  28]+0.002*[#  41]+
    |psi|^2 = 0.997
==== e( 103) =     3.24555 eV ==== 
     psi = 0.123*[# 217]+0.123*[# 230]+0.123*[# 243]+0.123*[# 256]+0.059*[# 262]+
          +0.059*[# 266]+0.059*[# 270]+0.059*[# 274]+0.028*[# 165]+0.028*[# 178]+
          +0.028*[# 191]+0.028*[# 204]+0.019*[# 210]+0.019*[# 223]+0.019*[# 236]+
          +0.019*[# 249]+0.011*[# 162]+0.011*[# 175]+0.011*[# 188]+0.011*[# 201]+
          +0.001*[# 214]+0.001*[# 227]+0.001*[# 240]+0.001*[# 253]+
    |psi|^2 = 0.995
==== e( 104) =     3.32915 eV ==== 
     psi = 0.159*[# 247]+0.159*[# 260]+0.055*[# 220]+0.055*[# 233]+0.049*[#  88]+
          +0.049*[# 101]+0.049*[#  63]+0.049*[#  76]+0.040*[#  39]+0.040*[#  52]+
          +0.026*[# 143]+0.026*[# 156]+0.022*[# 210]+0.022*[# 223]+0.020*[# 217]+
          +0.020*[# 230]+0.014*[#   2]+0.014*[#  15]+0.011*[#  12]+0.011*[#  25]+
          +0.010*[# 106]+0.010*[# 119]+0.009*[# 263]+0.009*[# 271]+0.008*[# 189]+
          +0.008*[# 202]+0.007*[# 116]+0.007*[# 129]+0.007*[# 167]+0.007*[# 180]+
          +0.006*[# 164]+0.006*[# 177]+0.002*[# 192]+0.002*[# 205]+0.001*[#   6]+
          +0.001*[#  19]+0.001*[# 110]+0.001*[# 113]+0.001*[# 123]+0.001*[# 126]+
          +0.001*[# 214]+0.001*[# 227]+
    |psi|^2 = 0.997
==== e( 105) =     3.32921 eV ==== 
     psi = 0.159*[# 221]+0.159*[# 234]+0.055*[# 246]+0.055*[# 259]+0.049*[#  62]+
          +0.049*[#  75]+0.049*[#  89]+0.049*[# 102]+0.040*[#  13]+0.040*[#  26]+
          +0.026*[# 117]+0.026*[# 130]+0.022*[# 236]+0.022*[# 249]+0.020*[# 243]+
          +0.020*[# 256]+0.014*[#  28]+0.014*[#  41]+0.011*[#  38]+0.011*[#  51]+
          +0.010*[# 132]+0.010*[# 145]+0.009*[# 267]+0.009*[# 275]+0.008*[# 163]+
          +0.008*[# 176]+0.007*[# 193]+0.007*[# 206]+0.007*[# 142]+0.007*[# 155]+
          +0.006*[# 190]+0.006*[# 203]+0.002*[# 166]+0.002*[# 179]+0.001*[#  32]+
          +0.001*[#  45]+0.001*[# 136]+0.001*[# 139]+0.001*[# 149]+0.001*[# 152]+
          +0.001*[# 240]+0.001*[# 253]+
    |psi|^2 = 0.997
==== e( 106) =     3.33336 eV ==== 
     psi = 0.137*[#  64]+0.137*[#  77]+0.137*[#  90]+0.137*[# 103]+0.069*[# 168]+
          +0.069*[# 181]+0.069*[# 194]+0.069*[# 207]+0.012*[#   9]+0.012*[#  22]+
          +0.012*[#  35]+0.012*[#  48]+0.007*[# 217]+0.007*[# 230]+0.007*[# 243]+
          +0.007*[# 256]+0.005*[# 110]+0.005*[# 123]+0.005*[# 136]+0.005*[# 149]+
          +0.005*[#  54]+0.005*[#  67]+0.005*[#  80]+0.005*[#  93]+0.002*[# 158]+
          +0.002*[# 171]+0.002*[# 184]+0.002*[# 197]+0.002*[#   6]+0.002*[#  19]+
          +0.002*[#  32]+0.002*[#  45]+0.002*[#   2]+0.002*[#  15]+0.002*[#  28]+
          +0.002*[#  41]+0.002*[#  61]+0.002*[#  74]+0.002*[#  87]+0.002*[# 100]+
          +0.002*[# 165]+0.002*[# 178]+0.002*[# 191]+0.002*[# 204]+0.001*[# 210]+
          +0.001*[# 223]+0.001*[# 236]+0.001*[# 249]+
    |psi|^2 = 0.998
==== e( 107) =     3.47936 eV ==== 
     psi = 0.077*[#  63]+0.077*[#  76]+0.077*[#  89]+0.077*[# 102]+0.054*[# 167]+
          +0.054*[# 180]+0.054*[# 193]+0.054*[# 206]+0.053*[#  11]+0.053*[#  24]+
          +0.053*[#  37]+0.053*[#  50]+0.043*[# 219]+0.043*[# 232]+0.043*[# 245]+
          +0.043*[# 258]+0.007*[# 112]+0.007*[# 125]+0.007*[# 138]+0.007*[# 151]+
          +0.004*[# 264]+0.004*[# 268]+0.004*[# 272]+0.004*[# 276]+0.003*[# 216]+
          +0.003*[# 229]+0.003*[# 242]+0.003*[# 255]+0.003*[#   8]+0.003*[#  21]+
          +0.003*[#  34]+0.003*[#  47]+0.002*[# 164]+0.002*[# 177]+0.002*[# 190]+
          +0.002*[# 203]+0.001*[# 115]+0.001*[# 128]+0.001*[# 141]+0.001*[# 154]+
          +0.001*[#  60]+0.001*[#  73]+0.001*[#  86]+0.001*[#  99]+
    |psi|^2 = 0.996
==== e( 108) =     3.49520 eV ==== 
     psi = 0.123*[# 195]+0.123*[# 208]+0.062*[#  91]+0.062*[# 104]+0.051*[# 266]+
          +0.051*[# 274]+0.039*[# 168]+0.039*[# 181]+0.035*[#  36]+0.035*[#  49]+
          +0.032*[#  11]+0.032*[#  24]+0.031*[# 158]+0.031*[# 171]+0.021*[# 241]+
          +0.021*[# 254]+0.019*[#  54]+0.019*[#  67]+0.018*[#  64]+0.018*[#  77]+
          +0.016*[# 137]+0.016*[# 150]+0.011*[# 216]+0.011*[# 229]+0.011*[# 112]+
          +0.011*[# 125]+0.006*[# 219]+0.006*[# 232]+0.004*[# 115]+0.004*[# 128]+
          +0.004*[# 265]+0.004*[# 273]+0.003*[#  33]+0.003*[#  46]+0.003*[# 140]+
          +0.003*[# 153]+0.002*[#   8]+0.002*[#  21]+0.001*[#  58]+0.001*[#  71]+
          +0.001*[# 157]+0.001*[# 170]+0.001*[# 238]+0.001*[# 251]+
    |psi|^2 = 0.997
==== e( 109) =     3.49520 eV ==== 
     psi = 0.123*[# 169]+0.123*[# 182]+0.062*[#  65]+0.062*[#  78]+0.051*[# 262]+
          +0.051*[# 270]+0.039*[# 194]+0.039*[# 207]+0.035*[#  10]+0.035*[#  23]+
          +0.032*[#  37]+0.032*[#  50]+0.031*[# 184]+0.031*[# 197]+0.021*[# 215]+
          +0.021*[# 228]+0.019*[#  80]+0.019*[#  93]+0.018*[#  90]+0.018*[# 103]+
          +0.016*[# 111]+0.016*[# 124]+0.011*[# 242]+0.011*[# 255]+0.011*[# 138]+
          +0.011*[# 151]+0.006*[# 245]+0.006*[# 258]+0.004*[# 141]+0.004*[# 154]+
          +0.004*[# 261]+0.004*[# 269]+0.003*[#   7]+0.003*[#  20]+0.003*[# 114]+
          +0.003*[# 127]+0.002*[#  34]+0.002*[#  47]+0.001*[#  84]+0.001*[#  97]+
          +0.001*[# 183]+0.001*[# 196]+0.001*[# 212]+0.001*[# 225]+
    |psi|^2 = 0.997
==== e( 110) =     3.56705 eV ==== 
     psi = 0.167*[#  12]+0.167*[#  25]+0.167*[#  38]+0.167*[#  51]+0.055*[# 116]+
          +0.055*[# 129]+0.055*[# 142]+0.055*[# 155]+0.005*[#  58]+0.005*[#  71]+
          +0.005*[#  84]+0.005*[#  97]+0.005*[#   2]+0.005*[#  15]+0.005*[#  28]+
          +0.005*[#  41]+0.004*[# 165]+0.004*[# 178]+0.004*[# 191]+0.004*[# 204]+
          +0.003*[#   9]+0.003*[#  22]+0.003*[#  35]+0.003*[#  48]+0.002*[#  61]+
          +0.002*[#  74]+0.002*[#  87]+0.002*[# 100]+0.001*[# 113]+0.001*[# 126]+
          +0.001*[# 139]+0.001*[# 152]+0.001*[# 106]+0.001*[# 119]+0.001*[# 132]+
          +0.001*[# 145]+0.001*[# 220]+0.001*[# 233]+0.001*[# 246]+0.001*[# 259]+
    |psi|^2 = 0.998
==== e( 111) =     3.66156 eV ==== 
     psi = 0.122*[# 218]+0.122*[# 231]+0.122*[# 244]+0.122*[# 257]+0.106*[# 263]+
          +0.106*[# 267]+0.106*[# 271]+0.106*[# 275]+0.016*[# 166]+0.016*[# 179]+
          +0.016*[# 192]+0.016*[# 205]+0.002*[# 215]+0.002*[# 228]+0.002*[# 241]+
          +0.002*[# 254]+0.002*[# 114]+0.002*[# 127]+0.002*[# 140]+0.002*[# 153]+
    |psi|^2 = 0.993
==== e( 112) =     3.72433 eV ==== 
     psi = 0.160*[#  39]+0.160*[#  52]+0.050*[#  12]+0.050*[#  25]+0.046*[# 143]+
          +0.046*[# 156]+0.035*[# 247]+0.035*[# 260]+0.033*[#   2]+0.033*[#  15]+
          +0.030*[# 192]+0.030*[# 205]+0.021*[# 217]+0.021*[# 230]+0.016*[# 167]+
          +0.016*[# 180]+0.016*[#  63]+0.016*[#  76]+0.015*[# 220]+0.015*[# 233]+
          +0.015*[#  85]+0.015*[#  98]+0.014*[# 116]+0.014*[# 129]+0.012*[#  88]+
          +0.012*[# 101]+0.011*[# 106]+0.011*[# 119]+0.010*[#  60]+0.010*[#  73]+
          +0.003*[# 189]+0.003*[# 202]+0.002*[# 164]+0.002*[# 177]+0.002*[#   9]+
          +0.002*[#  22]+0.001*[#   6]+0.001*[#  19]+0.001*[# 110]+0.001*[# 123]+
          +0.001*[# 210]+0.001*[# 223]+0.001*[# 263]+0.001*[# 271]+
    |psi|^2 = 0.998
==== e( 113) =     3.72434 eV ==== 
     psi = 0.160*[#  13]+0.160*[#  26]+0.050*[#  38]+0.050*[#  51]+0.046*[# 117]+
          +0.046*[# 130]+0.035*[# 221]+0.035*[# 234]+0.033*[#  28]+0.033*[#  41]+
          +0.030*[# 166]+0.030*[# 179]+0.021*[# 243]+0.021*[# 256]+0.016*[# 193]+
          +0.016*[# 206]+0.016*[#  89]+0.016*[# 102]+0.015*[# 246]+0.015*[# 259]+
          +0.015*[#  59]+0.015*[#  72]+0.014*[# 142]+0.014*[# 155]+0.012*[#  62]+
          +0.012*[#  75]+0.011*[# 132]+0.011*[# 145]+0.010*[#  86]+0.010*[#  99]+
          +0.003*[# 163]+0.003*[# 176]+0.002*[# 190]+0.002*[# 203]+0.002*[#  35]+
          +0.002*[#  48]+0.001*[#  32]+0.001*[#  45]+0.001*[# 136]+0.001*[# 149]+
          +0.001*[# 236]+0.001*[# 249]+0.001*[# 267]+0.001*[# 275]+
    |psi|^2 = 0.998
==== e( 114) =     4.22631 eV ==== 
     psi = 0.078*[# 115]+0.078*[# 128]+0.078*[# 141]+0.078*[# 154]+0.071*[#  11]+
          +0.071*[#  24]+0.071*[#  37]+0.071*[#  50]+0.064*[# 219]+0.064*[# 232]+
          +0.064*[# 245]+0.064*[# 258]+0.013*[# 164]+0.013*[# 177]+0.013*[# 190]+
          +0.013*[# 203]+0.012*[#  60]+0.012*[#  73]+0.012*[#  86]+0.012*[#  99]+
          +0.006*[# 264]+0.006*[# 268]+0.006*[# 272]+0.006*[# 276]+0.001*[#  63]+
          +0.001*[#  76]+0.001*[#  89]+0.001*[# 102]+
    |psi|^2 = 0.996
==== e( 115) =     4.27700 eV ==== 
     psi = 0.188*[# 221]+0.188*[# 234]+0.188*[# 247]+0.188*[# 260]+0.051*[# 169]+
          +0.051*[# 182]+0.051*[# 195]+0.051*[# 208]+0.009*[# 117]+0.009*[# 130]+
          +0.009*[# 143]+0.009*[# 156]+0.002*[#  65]+0.002*[#  78]+0.002*[#  91]+
          +0.002*[# 104]+
    |psi|^2 = 0.996
==== e( 116) =     4.30961 eV ==== 
     psi = 0.143*[# 166]+0.143*[# 179]+0.092*[# 243]+0.092*[# 256]+0.053*[# 117]+
          +0.053*[# 130]+0.033*[# 193]+0.033*[# 206]+0.031*[#  13]+0.031*[#  26]+
          +0.023*[# 142]+0.023*[# 155]+0.021*[# 139]+0.021*[# 152]+0.015*[#  35]+
          +0.015*[#  48]+0.012*[#  62]+0.012*[#  75]+0.012*[#  89]+0.012*[# 102]+
          +0.012*[#  38]+0.012*[#  51]+0.011*[# 221]+0.011*[# 234]+0.008*[# 246]+
          +0.008*[# 259]+0.006*[# 240]+0.006*[# 253]+0.005*[# 264]+0.005*[# 272]+
          +0.005*[# 163]+0.005*[# 176]+0.005*[# 136]+0.005*[# 149]+0.003*[# 236]+
          +0.003*[# 249]+0.002*[# 190]+0.002*[# 203]+0.002*[# 132]+0.002*[# 145]+
          +0.001*[#  28]+0.001*[#  41]+0.001*[#  86]+0.001*[#  99]+
    |psi|^2 = 0.998
==== e( 117) =     4.30964 eV ==== 
     psi = 0.143*[# 192]+0.143*[# 205]+0.092*[# 217]+0.092*[# 230]+0.053*[# 143]+
          +0.053*[# 156]+0.033*[# 167]+0.033*[# 180]+0.031*[#  39]+0.031*[#  52]+
          +0.023*[# 116]+0.023*[# 129]+0.021*[# 113]+0.021*[# 126]+0.015*[#   9]+
          +0.015*[#  22]+0.012*[#  88]+0.012*[# 101]+0.012*[#  63]+0.012*[#  76]+
          +0.012*[#  12]+0.012*[#  25]+0.011*[# 247]+0.011*[# 260]+0.008*[# 220]+
          +0.008*[# 233]+0.006*[# 214]+0.006*[# 227]+0.005*[# 268]+0.005*[# 276]+
          +0.005*[# 189]+0.005*[# 202]+0.005*[# 110]+0.005*[# 123]+0.003*[# 210]+
          +0.003*[# 223]+0.002*[# 164]+0.002*[# 177]+0.002*[# 106]+0.002*[# 119]+
          +0.001*[#   2]+0.001*[#  15]+0.001*[#  60]+0.001*[#  73]+
    |psi|^2 = 0.998
==== e( 118) =     4.46003 eV ==== 
     psi = 0.136*[# 114]+0.136*[# 127]+0.127*[# 191]+0.127*[# 204]+0.069*[# 169]+
          +0.069*[# 182]+0.039*[#  87]+0.039*[# 100]+0.032*[# 194]+0.032*[# 207]+
          +0.030*[#  65]+0.030*[#  78]+0.017*[# 141]+0.017*[# 154]+0.015*[#  90]+
          +0.015*[# 103]+0.012*[#  37]+0.012*[#  50]+0.007*[# 218]+0.007*[# 231]+
          +0.006*[# 245]+0.006*[# 258]+0.003*[#  84]+0.003*[#  97]+0.002*[# 188]+
          +0.002*[# 201]+0.002*[#  10]+0.002*[#  23]+0.002*[# 215]+0.002*[# 228]+
    |psi|^2 = 0.998
==== e( 119) =     4.46004 eV ==== 
     psi = 0.136*[# 140]+0.136*[# 153]+0.127*[# 165]+0.127*[# 178]+0.069*[# 195]+
          +0.069*[# 208]+0.039*[#  61]+0.039*[#  74]+0.032*[# 168]+0.032*[# 181]+
          +0.030*[#  91]+0.030*[# 104]+0.017*[# 115]+0.017*[# 128]+0.015*[#  64]+
          +0.015*[#  77]+0.012*[#  11]+0.012*[#  24]+0.007*[# 244]+0.007*[# 257]+
          +0.006*[# 219]+0.006*[# 232]+0.003*[#  58]+0.003*[#  71]+0.002*[# 162]+
          +0.002*[# 175]+0.002*[#  36]+0.002*[#  49]+0.002*[# 241]+0.002*[# 254]+
    |psi|^2 = 0.998
==== e( 120) =     4.49393 eV ==== 
     psi = 0.133*[#  62]+0.133*[#  75]+0.092*[#  35]+0.092*[#  48]+0.081*[# 139]+
          +0.081*[# 152]+0.068*[# 117]+0.068*[# 130]+0.046*[#  13]+0.046*[#  26]+
          +0.032*[# 142]+0.032*[# 155]+0.022*[#  38]+0.022*[#  51]+0.012*[#  89]+
          +0.012*[# 102]+0.005*[# 166]+0.005*[# 179]+0.003*[# 193]+0.003*[# 206]+
          +0.002*[#  32]+0.002*[#  45]+0.002*[# 136]+0.002*[# 149]+
    |psi|^2 = 0.998
==== e( 121) =     4.49393 eV ==== 
     psi = 0.133*[#  88]+0.133*[# 101]+0.092*[#   9]+0.092*[#  22]+0.081*[# 113]+
          +0.081*[# 126]+0.068*[# 143]+0.068*[# 156]+0.046*[#  39]+0.046*[#  52]+
          +0.032*[# 116]+0.032*[# 129]+0.022*[#  12]+0.022*[#  25]+0.012*[#  63]+
          +0.012*[#  76]+0.005*[# 192]+0.005*[# 205]+0.003*[# 167]+0.003*[# 180]+
          +0.002*[#   6]+0.002*[#  19]+0.002*[# 110]+0.002*[# 123]+
    |psi|^2 = 0.998
==== e( 122) =     4.54142 eV ==== 
     psi = 0.176*[#  36]+0.176*[#  49]+0.105*[#  61]+0.105*[#  74]+0.080*[#  91]+
          +0.080*[# 104]+0.053*[#  11]+0.053*[#  24]+0.036*[#  64]+0.036*[#  77]+
          +0.016*[# 115]+0.016*[# 128]+0.008*[#  58]+0.008*[#  71]+0.006*[# 195]+
          +0.006*[# 208]+0.005*[# 165]+0.005*[# 178]+0.003*[#  10]+0.003*[#  23]+
          +0.002*[# 168]+0.002*[# 181]+0.002*[#  87]+0.002*[# 100]+0.002*[# 140]+
          +0.002*[# 153]+0.002*[# 219]+0.002*[# 232]+0.001*[#  65]+0.001*[#  78]+
    |psi|^2 = 0.998
==== e( 123) =     4.54142 eV ==== 
     psi = 0.176*[#  10]+0.176*[#  23]+0.105*[#  87]+0.105*[# 100]+0.080*[#  65]+
          +0.080*[#  78]+0.053*[#  37]+0.053*[#  50]+0.036*[#  90]+0.036*[# 103]+
          +0.016*[# 141]+0.016*[# 154]+0.008*[#  84]+0.008*[#  97]+0.006*[# 169]+
          +0.006*[# 182]+0.005*[# 191]+0.005*[# 204]+0.003*[#  36]+0.003*[#  49]+
          +0.002*[# 194]+0.002*[# 207]+0.002*[#  61]+0.002*[#  74]+0.002*[# 114]+
          +0.002*[# 127]+0.002*[# 245]+0.002*[# 258]+0.001*[#  91]+0.001*[# 104]+
    |psi|^2 = 0.998
==== e( 124) =     4.58091 eV ==== 
     psi = 0.098*[#  65]+0.098*[#  78]+0.098*[#  91]+0.098*[# 104]+0.062*[# 117]+
          +0.062*[# 130]+0.062*[# 143]+0.062*[# 156]+0.059*[#  13]+0.059*[#  26]+
          +0.059*[#  39]+0.059*[#  52]+0.020*[# 221]+0.020*[# 234]+0.020*[# 247]+
          +0.020*[# 260]+0.009*[# 169]+0.009*[# 182]+0.009*[# 195]+0.009*[# 208]+
    |psi|^2 = 0.998
==== e( 125) =     4.71434 eV ==== 
     psi = 0.086*[#  62]+0.086*[#  75]+0.086*[#  88]+0.086*[# 101]+0.083*[# 114]+
          +0.083*[# 127]+0.083*[# 140]+0.083*[# 153]+0.037*[#  10]+0.037*[#  23]+
          +0.037*[#  36]+0.037*[#  49]+0.033*[# 166]+0.033*[# 179]+0.033*[# 192]+
          +0.033*[# 205]+0.009*[# 263]+0.009*[# 267]+0.009*[# 271]+0.009*[# 275]+
    |psi|^2 = 0.998
==== e( 126) =     4.82325 eV ==== 
     psi = 0.087*[#  13]+0.087*[#  26]+0.087*[#  39]+0.087*[#  52]+0.072*[# 169]+
          +0.072*[# 182]+0.072*[# 195]+0.072*[# 208]+0.051*[# 117]+0.051*[# 130]+
          +0.051*[# 143]+0.051*[# 156]+0.028*[# 221]+0.028*[# 234]+0.028*[# 247]+
          +0.028*[# 260]+0.012*[#  65]+0.012*[#  78]+0.012*[#  91]+0.012*[# 104]+
    |psi|^2 = 0.998
==== e( 127) =     4.89467 eV ==== 
     psi = 0.118*[# 165]+0.118*[# 178]+0.049*[# 266]+0.049*[# 274]+0.043*[# 241]+
          +0.043*[# 254]+0.043*[# 244]+0.043*[# 257]+0.042*[# 115]+0.042*[# 128]+
          +0.034*[# 140]+0.034*[# 153]+0.033*[#  61]+0.033*[#  74]+0.028*[# 219]+
          +0.028*[# 232]+0.024*[#  11]+0.024*[#  24]+0.017*[# 216]+0.017*[# 229]+
          +0.011*[# 162]+0.011*[# 175]+0.011*[# 195]+0.011*[# 208]+0.010*[#  36]+
          +0.010*[#  49]+0.008*[# 137]+0.008*[# 150]+0.008*[#  91]+0.008*[# 104]+
          +0.006*[#  58]+0.006*[#  71]+0.003*[#  64]+0.003*[#  77]+0.002*[# 112]+
          +0.002*[# 125]+0.002*[# 158]+0.002*[# 168]+0.002*[# 171]+0.002*[# 181]+
          +0.002*[# 238]+0.002*[# 251]+
    |psi|^2 = 0.997
==== e( 128) =     4.89470 eV ==== 
     psi = 0.118*[# 191]+0.118*[# 204]+0.049*[# 262]+0.049*[# 270]+0.043*[# 215]+
          +0.043*[# 228]+0.043*[# 218]+0.043*[# 231]+0.042*[# 141]+0.042*[# 154]+
          +0.034*[# 114]+0.034*[# 127]+0.033*[#  87]+0.033*[# 100]+0.028*[# 245]+
          +0.028*[# 258]+0.024*[#  37]+0.024*[#  50]+0.017*[# 242]+0.017*[# 255]+
          +0.011*[# 169]+0.011*[# 182]+0.011*[# 188]+0.011*[# 201]+0.010*[#  10]+
          +0.010*[#  23]+0.008*[# 111]+0.008*[# 124]+0.008*[#  65]+0.008*[#  78]+
          +0.006*[#  84]+0.006*[#  97]+0.003*[#  90]+0.003*[# 103]+0.002*[# 138]+
          +0.002*[# 151]+0.002*[# 184]+0.002*[# 194]+0.002*[# 197]+0.002*[# 207]+
          +0.002*[# 212]+0.002*[# 225]+
    |psi|^2 = 0.997
==== e( 129) =     5.14489 eV ==== 
     psi = 0.084*[# 169]+0.084*[# 182]+0.084*[# 195]+0.084*[# 208]+0.078*[#  13]+
          +0.078*[#  26]+0.078*[#  39]+0.078*[#  52]+0.050*[#  65]+0.050*[#  78]+
          +0.050*[#  91]+0.050*[# 104]+0.027*[# 117]+0.027*[# 130]+0.027*[# 143]+
          +0.027*[# 156]+0.011*[# 221]+0.011*[# 234]+0.011*[# 247]+0.011*[# 260]+
    |psi|^2 = 0.999
==== e( 130) =     5.20050 eV ==== 
     psi = 0.065*[#  11]+0.065*[#  24]+0.065*[#  37]+0.065*[#  50]+0.059*[# 219]+
          +0.059*[# 232]+0.059*[# 245]+0.059*[# 258]+0.047*[# 167]+0.047*[# 180]+
          +0.047*[# 193]+0.047*[# 206]+0.040*[#  63]+0.040*[#  76]+0.040*[#  89]+
          +0.040*[# 102]+0.015*[# 112]+0.015*[# 125]+0.015*[# 138]+0.015*[# 151]+
          +0.007*[# 264]+0.007*[# 268]+0.007*[# 272]+0.007*[# 276]+0.007*[#  60]+
          +0.007*[#  73]+0.007*[#  86]+0.007*[#  99]+0.005*[# 164]+0.005*[# 177]+
          +0.005*[# 190]+0.005*[# 203]+0.001*[# 216]+0.001*[# 229]+0.001*[# 242]+
          +0.001*[# 255]+0.001*[#   8]+0.001*[#  21]+0.001*[#  34]+0.001*[#  47]+
    |psi|^2 = 0.995
==== e( 131) =     5.23258 eV ==== 
     psi = 0.166*[# 139]+0.166*[# 152]+0.107*[#  35]+0.107*[#  48]+0.085*[# 243]+
[...]
          +0.004*[#  59]+0.004*[#  98]+0.003*[# 111]+0.003*[# 124]+0.003*[# 137]+
          +0.003*[# 150]+0.003*[# 219]+0.003*[# 232]+0.003*[# 245]+0.003*[# 258]+
          +0.002*[#   9]+0.002*[#  22]+0.002*[#  35]+0.002*[#  48]+0.002*[#  63]+
          +0.002*[# 102]+0.002*[#  12]+0.002*[#  25]+0.002*[#  38]+0.002*[#  51]+
          +0.002*[# 210]+0.002*[# 223]+0.002*[# 236]+0.002*[# 249]+0.001*[#  11]+
          +0.001*[#  24]+0.001*[#  37]+0.001*[#  50]+0.001*[#   7]+0.001*[#  20]+
          +0.001*[#  33]+0.001*[#  46]+0.001*[# 166]+0.001*[# 205]+0.001*[# 264]+
          +0.001*[# 276]+
    |psi|^2 = 0.997
==== e( 206) =    11.61039 eV ==== 
     psi = 0.069*[# 169]+0.069*[# 208]+0.050*[#  65]+0.050*[# 104]+0.038*[# 117]+
          +0.038*[# 130]+0.038*[# 143]+0.038*[# 156]+0.034*[# 177]+0.034*[# 190]+
          +0.020*[#  73]+0.020*[#  86]+0.018*[# 168]+0.018*[# 207]+0.016*[# 112]+
          +0.016*[# 125]+0.016*[# 138]+0.016*[# 151]+0.013*[#  13]+0.013*[#  26]+
          +0.013*[#  39]+0.013*[#  52]+0.010*[# 221]+0.010*[# 234]+0.010*[# 247]+
          +0.010*[# 260]+0.009*[# 165]+0.009*[# 176]+0.009*[# 189]+0.009*[# 204]+
          +0.008*[#  61]+0.008*[# 100]+0.008*[# 158]+0.008*[# 197]+0.007*[# 216]+
          +0.007*[# 229]+0.007*[# 242]+0.007*[# 255]+0.006*[#  64]+0.006*[# 103]+
          +0.006*[# 113]+0.006*[# 126]+0.006*[# 139]+0.006*[# 152]+0.006*[# 116]+
          +0.006*[# 129]+0.006*[# 142]+0.006*[# 155]+0.005*[#   8]+0.005*[#  21]+
          +0.005*[#  34]+0.005*[#  47]+0.004*[#  54]+0.004*[#  93]+0.004*[# 106]+
          +0.004*[# 119]+0.004*[# 132]+0.004*[# 145]+0.004*[# 262]+0.004*[# 274]+
          +0.004*[#  72]+0.004*[#  85]+0.003*[# 111]+0.003*[# 124]+0.003*[# 137]+
          +0.003*[# 150]+0.003*[# 219]+0.003*[# 232]+0.003*[# 245]+0.003*[# 258]+
          +0.002*[#   9]+0.002*[#  22]+0.002*[#  35]+0.002*[#  48]+0.002*[#  76]+
          +0.002*[#  89]+0.002*[#  12]+0.002*[#  25]+0.002*[#  38]+0.002*[#  51]+
          +0.002*[# 210]+0.002*[# 223]+0.002*[# 236]+0.002*[# 249]+0.001*[#  11]+
          +0.001*[#  24]+0.001*[#  37]+0.001*[#  50]+0.001*[#   7]+0.001*[#  20]+
          +0.001*[#  33]+0.001*[#  46]+0.001*[# 179]+0.001*[# 192]+0.001*[# 268]+
          +0.001*[# 272]+
    |psi|^2 = 0.997

Lowdin Charges: 

     Atom #   1: total charge =  15.9276, s =  2.3626, p =  6.9247, d =  6.6402, 
                 spin up      =   9.2971, s =  1.1783, 
                 spin up      =   9.2971, p =  3.4413, pz=  1.1080, px=  1.1641, py=  1.1693, 
                 spin up      =   9.2971, d =  4.6775, dz2=  0.9556, dxz=  0.9398, dyz=  0.9649, dx2-y2=  0.9338, dxy=  0.8834, 
                 spin down    =   6.6305, s =  1.1843, 
                 spin down    =   6.6305, p =  3.4834, pz=  1.1286, px=  1.1867, py=  1.1680, 
                 spin down    =   6.6305, d =  1.9627, dz2=  0.3486, dxz=  0.4293, dyz=  0.3007, dx2-y2=  0.3572, dxy=  0.5269, 
                 polarization =   2.6667, s = -0.0060, p = -0.0421, d =  2.7147, 
     Atom #   2: total charge =  15.9276, s =  2.3626, p =  6.9247, d =  6.6402, 
                 spin up      =   9.2971, s =  1.1783, 
                 spin up      =   9.2971, p =  3.4413, pz=  1.1080, px=  1.1641, py=  1.1693, 
                 spin up      =   9.2971, d =  4.6775, dz2=  0.9556, dxz=  0.9398, dyz=  0.9649, dx2-y2=  0.9338, dxy=  0.8834, 
                 spin down    =   6.6305, s =  1.1843, 
                 spin down    =   6.6305, p =  3.4834, pz=  1.1286, px=  1.1867, py=  1.1680, 
                 spin down    =   6.6305, d =  1.9627, dz2=  0.3486, dxz=  0.4293, dyz=  0.3007, dx2-y2=  0.3572, dxy=  0.5269, 
                 polarization =   2.6667, s = -0.0060, p = -0.0421, d =  2.7147, 
     Atom #   3: total charge =  15.9276, s =  2.3626, p =  6.9247, d =  6.6402, 
                 spin up      =   9.2971, s =  1.1783, 
                 spin up      =   9.2971, p =  3.4413, pz=  1.1080, px=  1.1641, py=  1.1693, 
                 spin up      =   9.2971, d =  4.6775, dz2=  0.9556, dxz=  0.9398, dyz=  0.9649, dx2-y2=  0.9338, dxy=  0.8834, 
                 spin down    =   6.6305, s =  1.1843, 
                 spin down    =   6.6305, p =  3.4834, pz=  1.1286, px=  1.1867, py=  1.1680, 
                 spin down    =   6.6305, d =  1.9627, dz2=  0.3486, dxz=  0.4293, dyz=  0.3007, dx2-y2=  0.3572, dxy=  0.5269, 
                 polarization =   2.6667, s = -0.0060, p = -0.0421, d =  2.7147, 
     Atom #   4: total charge =  15.9276, s =  2.3626, p =  6.9247, d =  6.6402, 
                 spin up      =   9.2971, s =  1.1783, 
                 spin up      =   9.2971, p =  3.4413, pz=  1.1080, px=  1.1641, py=  1.1693, 
                 spin up      =   9.2971, d =  4.6775, dz2=  0.9556, dxz=  0.9398, dyz=  0.9649, dx2-y2=  0.9338, dxy=  0.8834, 
                 spin down    =   6.6305, s =  1.1843, 
                 spin down    =   6.6305, p =  3.4834, pz=  1.1286, px=  1.1867, py=  1.1680, 
                 spin down    =   6.6305, d =  1.9627, dz2=  0.3486, dxz=  0.4293, dyz=  0.3007, dx2-y2=  0.3572, dxy=  0.5269, 
                 polarization =   2.6667, s = -0.0060, p = -0.0421, d =  2.7147, 
     Atom #   5: total charge =  16.0178, s =  2.2901, p =  7.0925, d =  6.6353, 
                 spin up      =   9.1110, s =  1.1340, 
                 spin up      =   9.1110, p =  3.4843, pz=  1.1664, px=  1.1572, py=  1.1607, 
                 spin up      =   9.1110, d =  4.4928, dz2=  0.8769, dxz=  0.8665, dyz=  0.9648, dx2-y2=  0.9390, dxy=  0.8456, 
                 spin down    =   6.9069, s =  1.1561, 
                 spin down    =   6.9069, p =  3.6083, pz=  1.2048, px=  1.2044, py=  1.1991, 
                 spin down    =   6.9069, d =  2.1425, dz2=  0.4623, dxz=  0.5196, dyz=  0.2952, dx2-y2=  0.3503, dxy=  0.5152, 
                 polarization =   2.2041, s = -0.0222, p = -0.1240, d =  2.3503, 
     Atom #   6: total charge =  16.0178, s =  2.2901, p =  7.0925, d =  6.6353, 
                 spin up      =   9.1110, s =  1.1340, 
                 spin up      =   9.1110, p =  3.4843, pz=  1.1664, px=  1.1572, py=  1.1607, 
                 spin up      =   9.1110, d =  4.4928, dz2=  0.8769, dxz=  0.8665, dyz=  0.9648, dx2-y2=  0.9390, dxy=  0.8456, 
                 spin down    =   6.9069, s =  1.1561, 
                 spin down    =   6.9069, p =  3.6083, pz=  1.2048, px=  1.2044, py=  1.1991, 
                 spin down    =   6.9069, d =  2.1425, dz2=  0.4623, dxz=  0.5196, dyz=  0.2952, dx2-y2=  0.3503, dxy=  0.5152, 
                 polarization =   2.2041, s = -0.0222, p = -0.1240, d =  2.3503, 
     Atom #   7: total charge =  16.0178, s =  2.2901, p =  7.0925, d =  6.6353, 
                 spin up      =   9.1110, s =  1.1340, 
                 spin up      =   9.1110, p =  3.4843, pz=  1.1664, px=  1.1572, py=  1.1607, 
                 spin up      =   9.1110, d =  4.4928, dz2=  0.8769, dxz=  0.8665, dyz=  0.9648, dx2-y2=  0.9390, dxy=  0.8456, 
                 spin down    =   6.9069, s =  1.1561, 
                 spin down    =   6.9069, p =  3.6083, pz=  1.2048, px=  1.2044, py=  1.1991, 
                 spin down    =   6.9069, d =  2.1425, dz2=  0.4623, dxz=  0.5196, dyz=  0.2952, dx2-y2=  0.3503, dxy=  0.5152, 
                 polarization =   2.2041, s = -0.0222, p = -0.1240, d =  2.3502, 
     Atom #   8: total charge =  16.0178, s =  2.2901, p =  7.0925, d =  6.6353, 
                 spin up      =   9.1110, s =  1.1340, 
                 spin up      =   9.1110, p =  3.4843, pz=  1.1664, px=  1.1572, py=  1.1607, 
                 spin up      =   9.1110, d =  4.4928, dz2=  0.8769, dxz=  0.8665, dyz=  0.9648, dx2-y2=  0.9390, dxy=  0.8456, 
                 spin down    =   6.9069, s =  1.1561, 
                 spin down    =   6.9069, p =  3.6083, pz=  1.2048, px=  1.2044, py=  1.1991, 
                 spin down    =   6.9069, d =  2.1425, dz2=  0.4623, dxz=  0.5196, dyz=  0.2952, dx2-y2=  0.3503, dxy=  0.5152, 
                 polarization =   2.2041, s = -0.0222, p = -0.1240, d =  2.3502, 
     Atom #   9: total charge =  15.9868, s =  2.2834, p =  7.0811, d =  6.6223, 
                 spin up      =   9.0622, s =  1.1324, 
                 spin up      =   9.0622, p =  3.4780, pz=  1.1599, px=  1.1587, py=  1.1595, 
                 spin up      =   9.0622, d =  4.4518, dz2=  0.8746, dxz=  0.8417, dyz=  0.9630, dx2-y2=  0.9320, dxy=  0.8405, 
                 spin down    =   6.9246, s =  1.1510, 
                 spin down    =   6.9246, p =  3.6031, pz=  1.2014, px=  1.2011, py=  1.2006, 
                 spin down    =   6.9246, d =  2.1705, dz2=  0.4672, dxz=  0.5196, dyz=  0.3010, dx2-y2=  0.3609, dxy=  0.5218, 
                 polarization =   2.1376, s = -0.0187, p = -0.1250, d =  2.2813, 
     Atom #  10: total charge =  15.9868, s =  2.2834, p =  7.0811, d =  6.6223, 
                 spin up      =   9.0622, s =  1.1324, 
                 spin up      =   9.0622, p =  3.4780, pz=  1.1599, px=  1.1587, py=  1.1595, 
                 spin up      =   9.0622, d =  4.4518, dz2=  0.8746, dxz=  0.8417, dyz=  0.9630, dx2-y2=  0.9320, dxy=  0.8405, 
                 spin down    =   6.9246, s =  1.1510, 
                 spin down    =   6.9246, p =  3.6031, pz=  1.2014, px=  1.2011, py=  1.2006, 
                 spin down    =   6.9246, d =  2.1705, dz2=  0.4672, dxz=  0.5196, dyz=  0.3010, dx2-y2=  0.3609, dxy=  0.5218, 
                 polarization =   2.1376, s = -0.0187, p = -0.1250, d =  2.2813, 
     Atom #  11: total charge =  15.9868, s =  2.2834, p =  7.0811, d =  6.6223, 
                 spin up      =   9.0622, s =  1.1324, 
                 spin up      =   9.0622, p =  3.4780, pz=  1.1599, px=  1.1587, py=  1.1595, 
                 spin up      =   9.0622, d =  4.4518, dz2=  0.8746, dxz=  0.8417, dyz=  0.9630, dx2-y2=  0.9320, dxy=  0.8405, 
                 spin down    =   6.9246, s =  1.1510, 
                 spin down    =   6.9246, p =  3.6031, pz=  1.2014, px=  1.2011, py=  1.2006, 
                 spin down    =   6.9246, d =  2.1705, dz2=  0.4672, dxz=  0.5196, dyz=  0.3010, dx2-y2=  0.3609, dxy=  0.5218, 
                 polarization =   2.1376, s = -0.0187, p = -0.1250, d =  2.2813, 
     Atom #  12: total charge =  15.9868, s =  2.2834, p =  7.0811, d =  6.6223, 
                 spin up      =   9.0622, s =  1.1324, 
                 spin up      =   9.0622, p =  3.4780, pz=  1.1599, px=  1.1587, py=  1.1595, 
                 spin up      =   9.0622, d =  4.4518, dz2=  0.8746, dxz=  0.8417, dyz=  0.9630, dx2-y2=  0.9320, dxy=  0.8405, 
                 spin down    =   6.9246, s =  1.1510, 
                 spin down    =   6.9246, p =  3.6031, pz=  1.2014, px=  1.2011, py=  1.2006, 
                 spin down    =   6.9246, d =  2.1705, dz2=  0.4672, dxz=  0.5196, dyz=  0.3010, dx2-y2=  0.3609, dxy=  0.5218, 
                 polarization =   2.1376, s = -0.0187, p = -0.1250, d =  2.2813, 
     Atom #  13: total charge =  15.9990, s =  2.2877, p =  7.0874, d =  6.6239, 
                 spin up      =   9.1381, s =  1.1365, 
                 spin up      =   9.1381, p =  3.4885, pz=  1.1646, px=  1.1622, py=  1.1617, 
                 spin up      =   9.1381, d =  4.5131, dz2=  0.8916, dxz=  0.8618, dyz=  0.9610, dx2-y2=  0.9360, dxy=  0.8628, 
                 spin down    =   6.8609, s =  1.1512, 
                 spin down    =   6.8609, p =  3.5989, pz=  1.2051, px=  1.1974, py=  1.1964, 
                 spin down    =   6.8609, d =  2.1108, dz2=  0.4463, dxz=  0.5145, dyz=  0.2867, dx2-y2=  0.3492, dxy=  0.5141, 
                 polarization =   2.2771, s = -0.0147, p = -0.1104, d =  2.4023, 
     Atom #  14: total charge =  15.9990, s =  2.2877, p =  7.0874, d =  6.6239, 
                 spin up      =   9.1381, s =  1.1365, 
                 spin up      =   9.1381, p =  3.4885, pz=  1.1646, px=  1.1622, py=  1.1617, 
                 spin up      =   9.1381, d =  4.5131, dz2=  0.8916, dxz=  0.8618, dyz=  0.9610, dx2-y2=  0.9360, dxy=  0.8628, 
                 spin down    =   6.8609, s =  1.1512, 
                 spin down    =   6.8609, p =  3.5989, pz=  1.2051, px=  1.1974, py=  1.1964, 
                 spin down    =   6.8609, d =  2.1108, dz2=  0.4463, dxz=  0.5145, dyz=  0.2867, dx2-y2=  0.3492, dxy=  0.5141, 
                 polarization =   2.2771, s = -0.0147, p = -0.1104, d =  2.4023, 
     Atom #  15: total charge =  15.9989, s =  2.2877, p =  7.0874, d =  6.6239, 
                 spin up      =   9.1381, s =  1.1365, 
                 spin up      =   9.1381, p =  3.4885, pz=  1.1646, px=  1.1622, py=  1.1617, 
                 spin up      =   9.1381, d =  4.5131, dz2=  0.8916, dxz=  0.8618, dyz=  0.9610, dx2-y2=  0.9360, dxy=  0.8628, 
                 spin down    =   6.8609, s =  1.1512, 
                 spin down    =   6.8609, p =  3.5989, pz=  1.2051, px=  1.1974, py=  1.1964, 
                 spin down    =   6.8609, d =  2.1108, dz2=  0.4463, dxz=  0.5145, dyz=  0.2867, dx2-y2=  0.3492, dxy=  0.5141, 
                 polarization =   2.2772, s = -0.0147, p = -0.1104, d =  2.4024, 
     Atom #  16: total charge =  15.9989, s =  2.2877, p =  7.0874, d =  6.6239, 
                 spin up      =   9.1381, s =  1.1365, 
                 spin up      =   9.1381, p =  3.4885, pz=  1.1646, px=  1.1622, py=  1.1617, 
                 spin up      =   9.1381, d =  4.5131, dz2=  0.8916, dxz=  0.8618, dyz=  0.9610, dx2-y2=  0.9360, dxy=  0.8628, 
                 spin down    =   6.8609, s =  1.1512, 
                 spin down    =   6.8609, p =  3.5989, pz=  1.2051, px=  1.1974, py=  1.1964, 
                 spin down    =   6.8609, d =  2.1108, dz2=  0.4463, dxz=  0.5145, dyz=  0.2867, dx2-y2=  0.3492, dxy=  0.5141, 
                 polarization =   2.2772, s = -0.0147, p = -0.1104, d =  2.4024, 
     Atom #  17: total charge =  16.1225, s =  2.3111, p =  7.1071, d =  6.7043, 
                 spin up      =   9.2250, s =  1.1500, 
                 spin up      =   9.2250, p =  3.5345, pz=  1.1777, px=  1.1791, py=  1.1777, 
                 spin up      =   9.2250, d =  4.5405, dz2=  0.9007, dxz=  0.8254, dyz=  0.9576, dx2-y2=  0.9442, dxy=  0.9126, 
                 spin down    =   6.8975, s =  1.1610, 
                 spin down    =   6.8975, p =  3.5726, pz=  1.1838, px=  1.1971, py=  1.1917, 
                 spin down    =   6.8975, d =  2.1639, dz2=  0.5059, dxz=  0.4595, dyz=  0.3050, dx2-y2=  0.3289, dxy=  0.5645, 
                 polarization =   2.3275, s = -0.0110, p = -0.0381, d =  2.3766, 
     Atom #  18: total charge =  16.1225, s =  2.3111, p =  7.1071, d =  6.7043, 
                 spin up      =   9.2250, s =  1.1500, 
                 spin up      =   9.2250, p =  3.5345, pz=  1.1777, px=  1.1791, py=  1.1777, 
                 spin up      =   9.2250, d =  4.5405, dz2=  0.9007, dxz=  0.8254, dyz=  0.9576, dx2-y2=  0.9442, dxy=  0.9126, 
                 spin down    =   6.8975, s =  1.1610, 
                 spin down    =   6.8975, p =  3.5726, pz=  1.1838, px=  1.1971, py=  1.1917, 
                 spin down    =   6.8975, d =  2.1639, dz2=  0.5059, dxz=  0.4595, dyz=  0.3050, dx2-y2=  0.3289, dxy=  0.5645, 
                 polarization =   2.3275, s = -0.0110, p = -0.0381, d =  2.3766, 
     Atom #  19: total charge =  16.1225, s =  2.3111, p =  7.1071, d =  6.7043, 
                 spin up      =   9.2250, s =  1.1500, 
                 spin up      =   9.2250, p =  3.5345, pz=  1.1777, px=  1.1791, py=  1.1777, 
                 spin up      =   9.2250, d =  4.5405, dz2=  0.9007, dxz=  0.8254, dyz=  0.9577, dx2-y2=  0.9442, dxy=  0.9126, 
                 spin down    =   6.8975, s =  1.1610, 
                 spin down    =   6.8975, p =  3.5726, pz=  1.1838, px=  1.1971, py=  1.1917, 
                 spin down    =   6.8975, d =  2.1638, dz2=  0.5059, dxz=  0.4595, dyz=  0.3050, dx2-y2=  0.3289, dxy=  0.5645, 
                 polarization =   2.3275, s = -0.0110, p = -0.0381, d =  2.3767, 
     Atom #  20: total charge =  16.1225, s =  2.3111, p =  7.1071, d =  6.7043, 
                 spin up      =   9.2250, s =  1.1500, 
                 spin up      =   9.2250, p =  3.5345, pz=  1.1777, px=  1.1791, py=  1.1777, 
                 spin up      =   9.2250, d =  4.5405, dz2=  0.9007, dxz=  0.8254, dyz=  0.9577, dx2-y2=  0.9442, dxy=  0.9126, 
                 spin down    =   6.8975, s =  1.1610, 
                 spin down    =   6.8975, p =  3.5726, pz=  1.1838, px=  1.1971, py=  1.1917, 
                 spin down    =   6.8975, d =  2.1638, dz2=  0.5059, dxz=  0.4595, dyz=  0.3050, dx2-y2=  0.3289, dxy=  0.5645, 
                 polarization =   2.3275, s = -0.0110, p = -0.0381, d =  2.3767, 
     Atom #  21: total charge =   5.7103, s =  1.7061, p =  4.0042, d =  0.0000, 
                 spin up      =   2.8773, s =  0.8577, 
                 spin up      =   2.8773, p =  2.0196, pz=  0.7534, px=  0.6595, py=  0.6067, 
                 spin up      =   2.8773, d =  0.0000, dz2=  0.0000, dxz=  0.0000, dyz=  0.0000, dx2-y2=  0.0000, dxy=  0.0000, 
                 spin down    =   2.8330, s =  0.8484, 
                 spin down    =   2.8330, p =  1.9846, pz=  0.7487, px=  0.6538, py=  0.5822, 
                 spin down    =   2.8330, d =  0.0000, dz2=  0.0000, dxz=  0.0000, dyz=  0.0000, dx2-y2=  0.0000, dxy=  0.0000, 
                 polarization =   0.0443, s =  0.0093, p =  0.0350, d =  0.0000, 
     Atom #  22: total charge =   5.7103, s =  1.7061, p =  4.0042, d =  0.0000, 
                 spin up      =   2.8773, s =  0.8577, 
                 spin up      =   2.8773, p =  2.0196, pz=  0.7534, px=  0.6595, py=  0.6066, 
                 spin up      =   2.8773, d =  0.0000, dz2=  0.0000, dxz=  0.0000, dyz=  0.0000, dx2-y2=  0.0000, dxy=  0.0000, 
                 spin down    =   2.8330, s =  0.8484, 
                 spin down    =   2.8330, p =  1.9846, pz=  0.7487, px=  0.6538, py=  0.5821, 
                 spin down    =   2.8330, d =  0.0000, dz2=  0.0000, dxz=  0.0000, dyz=  0.0000, dx2-y2=  0.0000, dxy=  0.0000, 
                 polarization =   0.0443, s =  0.0093, p =  0.0350, d =  0.0000, 
     Atom #  23: total charge =   5.7103, s =  1.7061, p =  4.0042, d =  0.0000, 
                 spin up      =   2.8773, s =  0.8577, 
                 spin up      =   2.8773, p =  2.0196, pz=  0.7534, px=  0.6595, py=  0.6067, 
                 spin up      =   2.8773, d =  0.0000, dz2=  0.0000, dxz=  0.0000, dyz=  0.0000, dx2-y2=  0.0000, dxy=  0.0000, 
                 spin down    =   2.8330, s =  0.8484, 
                 spin down    =   2.8330, p =  1.9846, pz=  0.7487, px=  0.6538, py=  0.5822, 
                 spin down    =   2.8330, d =  0.0000, dz2=  0.0000, dxz=  0.0000, dyz=  0.0000, dx2-y2=  0.0000, dxy=  0.0000, 
                 polarization =   0.0443, s =  0.0093, p =  0.0350, d =  0.0000, 
     Atom #  24: total charge =   5.7103, s =  1.7061, p =  4.0042, d =  0.0000, 
                 spin up      =   2.8773, s =  0.8577, 
                 spin up      =   2.8773, p =  2.0196, pz=  0.7534, px=  0.6595, py=  0.6066, 
                 spin up      =   2.8773, d =  0.0000, dz2=  0.0000, dxz=  0.0000, dyz=  0.0000, dx2-y2=  0.0000, dxy=  0.0000, 
                 spin down    =   2.8330, s =  0.8484, 
                 spin down    =   2.8330, p =  1.9846, pz=  0.7487, px=  0.6538, py=  0.5821, 
                 spin down    =   2.8330, d =  0.0000, dz2=  0.0000, dxz=  0.0000, dyz=  0.0000, dx2-y2=  0.0000, dxy=  0.0000, 
                 polarization =   0.0443, s =  0.0093, p =  0.0350, d =  0.0000, 
     Spilling Parameter:   0.0027
 
     PROJWFC      :  1m 0.77s CPU     2m29.85s WALL

 
   This run was terminated on:   4:29:56  27Oct2017            

=------------------------------------------------------------------------------=
   JOB DONE.
=------------------------------------------------------------------------------=
