
     Program PWSCF v.6.1 (svn rev. 13369) starts on  6Sep2017 at 12:42:45 

     This program is part of the open-source Quantum ESPRESSO suite
     for quantum simulation of materials; please cite
         "P. Giannozzi et al., J. Phys.:Condens. Matter 21 395502 (2009);
          URL http://www.quantum-espresso.org", 
     in publications or presentations arising from this work. More details at
     http://www.quantum-espresso.org/quote

     Parallel version (MPI), running on     2 processors
     R & G space division:  proc/nbgrp/npool/nimage =       2
     Reading input from fe_bcc_fm.main.in

     Current dimensions of program PWSCF are:
     Max number of different atomic species (ntypx) = 10
     Max number of k-points (npk) =  40000
     Max angular momentum in pseudopotentials (lmaxx) =  3
               file Fe.pz-nd-rrkjus.UPF: wavefunction(s)  4S renormalized

     Subspace diagonalization in iterative solution of the eigenvalue problem:
     a serial algorithm will be used


     Parallelization info
     --------------------
     sticks:   dense  smooth     PW     G-vecs:    dense   smooth      PW
     Min         299     100     34                 4594      872     190
     Max         300     101     35                 4595      873     191
     Sum         599     201     69                 9189     1745     381



     bravais-lattice index     =            3
     lattice parameter (alat)  =       5.4200  a.u.
     unit-cell volume          =      79.6100 (a.u.)^3
     number of atoms/cell      =            1
     number of atomic types    =            1
     number of electrons       =         8.00
     number of Kohn-Sham states=            8
     kinetic-energy cutoff     =      30.0000  Ry
     charge density cutoff     =     360.0000  Ry
     convergence threshold     =      1.0E-08
     mixing beta               =       0.5000
     number of iterations used =            8  plain     mixing
     Exchange-correlation      =  SLA  PZ   NOGX NOGC ( 1  1  0  0 0 0)

     celldm(1)=   5.420000  celldm(2)=   0.000000  celldm(3)=   0.000000
     celldm(4)=   0.000000  celldm(5)=   0.000000  celldm(6)=   0.000000

     crystal axes: (cart. coord. in units of alat)
               a(1) = (   0.500000   0.500000   0.500000 )  
               a(2) = (  -0.500000   0.500000   0.500000 )  
               a(3) = (  -0.500000  -0.500000   0.500000 )  

     reciprocal axes: (cart. coord. in units 2 pi/alat)
               b(1) = (  1.000000  0.000000  1.000000 )  
               b(2) = ( -1.000000  1.000000  0.000000 )  
               b(3) = (  0.000000 -1.000000  1.000000 )  


     PseudoPot. # 1 for Fe read from file:
     ./Fe.pz-nd-rrkjus.UPF
     MD5 check sum: 2e083728ad07023434bc1cc596eb954d
     Pseudo is Ultrasoft + core correction, Zval =  8.0
     Generated by new atomic code, or converted to UPF format
     Using radial grid of  957 points,  6 beta functions with: 
                l(1) =   0
                l(2) =   0
                l(3) =   1
                l(4) =   1
                l(5) =   2
                l(6) =   2
     Q(r) pseudized with 0 coefficients 


     atomic species   valence    mass     pseudopotential
        Fe             8.00    55.84500     Fe( 1.00)

     Starting magnetic structure 
     atomic species   magnetization
        Fe           0.600

     48 Sym. Ops., with inversion, found


                                    s                        frac. trans.

      isym =  1     identity                                     

 cryst.   s( 1) = (     1          0          0      )
                  (     0          1          0      )
                  (     0          0          1      )

 cart.    s( 1) = (  1.0000000  0.0000000  0.0000000 )
                  (  0.0000000  1.0000000  0.0000000 )
                  (  0.0000000  0.0000000  1.0000000 )


      isym =  2     180 deg rotation - cart. axis [0,0,1]        

 cryst.   s( 2) = (     0          0          1      )
                  (     1         -1          1      )
                  (     1          0          0      )

 cart.    s( 2) = ( -1.0000000  0.0000000  0.0000000 )
                  (  0.0000000 -1.0000000  0.0000000 )
                  (  0.0000000  0.0000000  1.0000000 )


      isym =  3     180 deg rotation - cart. axis [0,1,0]        

 cryst.   s( 3) = (    -1          1         -1      )
                  (     0          0         -1      )
                  (     0         -1          0      )

 cart.    s( 3) = ( -1.0000000  0.0000000  0.0000000 )
                  (  0.0000000  1.0000000  0.0000000 )
                  (  0.0000000  0.0000000 -1.0000000 )


      isym =  4     180 deg rotation - cart. axis [1,0,0]        

 cryst.   s( 4) = (     0         -1          0      )
                  (    -1          0          0      )
                  (    -1          1         -1      )

 cart.    s( 4) = (  1.0000000  0.0000000  0.0000000 )
                  (  0.0000000 -1.0000000  0.0000000 )
                  (  0.0000000  0.0000000 -1.0000000 )


      isym =  5     180 deg rotation - cart. axis [1,1,0]        

 cryst.   s( 5) = (     0          0         -1      )
                  (     0         -1          0      )
                  (    -1          0          0      )

 cart.    s( 5) = (  0.0000000  1.0000000  0.0000000 )
                  (  1.0000000  0.0000000  0.0000000 )
                  (  0.0000000  0.0000000 -1.0000000 )


      isym =  6     180 deg rotation - cart. axis [1,-1,0]       

 cryst.   s( 6) = (    -1          0          0      )
                  (    -1          1         -1      )
                  (     0          0         -1      )

 cart.    s( 6) = (  0.0000000 -1.0000000  0.0000000 )
                  ( -1.0000000  0.0000000  0.0000000 )
                  (  0.0000000  0.0000000 -1.0000000 )


      isym =  7      90 deg rotation - cart. axis [0,0,-1]       

 cryst.   s( 7) = (     1         -1          1      )
                  (     1          0          0      )
                  (     0          1          0      )

 cart.    s( 7) = (  0.0000000  1.0000000  0.0000000 )
                  ( -1.0000000  0.0000000  0.0000000 )
                  (  0.0000000  0.0000000  1.0000000 )


      isym =  8      90 deg rotation - cart. axis [0,0,1]        

 cryst.   s( 8) = (     0          1          0      )
                  (     0          0          1      )
                  (     1         -1          1      )

 cart.    s( 8) = (  0.0000000 -1.0000000  0.0000000 )
                  (  1.0000000  0.0000000  0.0000000 )
                  (  0.0000000  0.0000000  1.0000000 )


      isym =  9     180 deg rotation - cart. axis [1,0,1]        

 cryst.   s( 9) = (     1         -1          1      )
                  (     0         -1          0      )
                  (     0          0         -1      )

 cart.    s( 9) = (  0.0000000  0.0000000  1.0000000 )
                  (  0.0000000 -1.0000000  0.0000000 )
                  (  1.0000000  0.0000000  0.0000000 )


      isym = 10     180 deg rotation - cart. axis [-1,0,1]       

 cryst.   s(10) = (    -1          0          0      )
                  (     0          0          1      )
                  (     0          1          0      )

 cart.    s(10) = (  0.0000000  0.0000000 -1.0000000 )
                  (  0.0000000 -1.0000000  0.0000000 )
                  ( -1.0000000  0.0000000  0.0000000 )


      isym = 11      90 deg rotation - cart. axis [0,1,0]        

 cryst.   s(11) = (     0          0         -1      )
                  (     1          0          0      )
                  (     1         -1          1      )

 cart.    s(11) = (  0.0000000  0.0000000  1.0000000 )
                  (  0.0000000  1.0000000  0.0000000 )
                  ( -1.0000000  0.0000000  0.0000000 )


      isym = 12      90 deg rotation - cart. axis [0,-1,0]       

 cryst.   s(12) = (     0          1          0      )
                  (    -1          1         -1      )
                  (    -1          0          0      )

 cart.    s(12) = (  0.0000000  0.0000000 -1.0000000 )
                  (  0.0000000  1.0000000  0.0000000 )
                  (  1.0000000  0.0000000  0.0000000 )


      isym = 13     180 deg rotation - cart. axis [0,1,1]        

 cryst.   s(13) = (     0          1          0      )
                  (     1          0          0      )
                  (     0          0         -1      )

 cart.    s(13) = ( -1.0000000  0.0000000  0.0000000 )
                  (  0.0000000  0.0000000  1.0000000 )
                  (  0.0000000  1.0000000  0.0000000 )


      isym = 14     180 deg rotation - cart. axis [0,1,-1]       

 cryst.   s(14) = (    -1          0          0      )
                  (     0         -1          0      )
                  (     1         -1          1      )

 cart.    s(14) = ( -1.0000000  0.0000000  0.0000000 )
                  (  0.0000000  0.0000000 -1.0000000 )
                  (  0.0000000 -1.0000000  0.0000000 )


      isym = 15      90 deg rotation - cart. axis [-1,0,0]       

 cryst.   s(15) = (     0          0         -1      )
                  (    -1          1         -1      )
                  (     0          1          0      )

 cart.    s(15) = (  1.0000000  0.0000000  0.0000000 )
                  (  0.0000000  0.0000000  1.0000000 )
                  (  0.0000000 -1.0000000  0.0000000 )


      isym = 16      90 deg rotation - cart. axis [1,0,0]        

 cryst.   s(16) = (     1         -1          1      )
                  (     0          0          1      )
                  (    -1          0          0      )

 cart.    s(16) = (  1.0000000  0.0000000  0.0000000 )
                  (  0.0000000  0.0000000 -1.0000000 )
                  (  0.0000000  1.0000000  0.0000000 )


      isym = 17     120 deg rotation - cart. axis [-1,-1,-1]     

 cryst.   s(17) = (     1          0          0      )
                  (     0          0         -1      )
                  (    -1          1         -1      )

 cart.    s(17) = (  0.0000000  1.0000000  0.0000000 )
                  (  0.0000000  0.0000000  1.0000000 )
                  (  1.0000000  0.0000000  0.0000000 )


      isym = 18     120 deg rotation - cart. axis [-1,1,1]       

 cryst.   s(18) = (    -1          1         -1      )
                  (     0          1          0      )
                  (     1          0          0      )

 cart.    s(18) = (  0.0000000 -1.0000000  0.0000000 )
                  (  0.0000000  0.0000000  1.0000000 )
                  ( -1.0000000  0.0000000  0.0000000 )


      isym = 19     120 deg rotation - cart. axis [1,1,-1]       

 cryst.   s(19) = (     0         -1          0      )
                  (     1         -1          1      )
                  (     0          0          1      )

 cart.    s(19) = (  0.0000000  1.0000000  0.0000000 )
                  (  0.0000000  0.0000000 -1.0000000 )
                  ( -1.0000000  0.0000000  0.0000000 )


      isym = 20     120 deg rotation - cart. axis [1,-1,1]       

 cryst.   s(20) = (     0          0          1      )
                  (    -1          0          0      )
                  (     0         -1          0      )

 cart.    s(20) = (  0.0000000 -1.0000000  0.0000000 )
                  (  0.0000000  0.0000000 -1.0000000 )
                  (  1.0000000  0.0000000  0.0000000 )


      isym = 21     120 deg rotation - cart. axis [1,1,1]        

 cryst.   s(21) = (     1          0          0      )
                  (     1         -1          1      )
                  (     0         -1          0      )

 cart.    s(21) = (  0.0000000  0.0000000  1.0000000 )
                  (  1.0000000  0.0000000  0.0000000 )
                  (  0.0000000  1.0000000  0.0000000 )


      isym = 22     120 deg rotation - cart. axis [-1,1,-1]      

 cryst.   s(22) = (     0         -1          0      )
                  (     0          0         -1      )
                  (     1          0          0      )

 cart.    s(22) = (  0.0000000  0.0000000  1.0000000 )
                  ( -1.0000000  0.0000000  0.0000000 )
                  (  0.0000000 -1.0000000  0.0000000 )


      isym = 23     120 deg rotation - cart. axis [1,-1,-1]      

 cryst.   s(23) = (     0          0          1      )
                  (     0          1          0      )
                  (    -1          1         -1      )

 cart.    s(23) = (  0.0000000  0.0000000 -1.0000000 )
                  ( -1.0000000  0.0000000  0.0000000 )
                  (  0.0000000  1.0000000  0.0000000 )


      isym = 24     120 deg rotation - cart. axis [-1,-1,1]      

 cryst.   s(24) = (    -1          1         -1      )
                  (    -1          0          0      )
                  (     0          0          1      )

 cart.    s(24) = (  0.0000000  0.0000000 -1.0000000 )
                  (  1.0000000  0.0000000  0.0000000 )
                  (  0.0000000 -1.0000000  0.0000000 )


      isym = 25     inversion                                    

 cryst.   s(25) = (    -1          0          0      )
                  (     0         -1          0      )
                  (     0          0         -1      )

 cart.    s(25) = ( -1.0000000  0.0000000  0.0000000 )
                  (  0.0000000 -1.0000000  0.0000000 )
                  (  0.0000000  0.0000000 -1.0000000 )


      isym = 26     inv. 180 deg rotation - cart. axis [0,0,1]   

 cryst.   s(26) = (     0          0         -1      )
                  (    -1          1         -1      )
                  (    -1          0          0      )

 cart.    s(26) = (  1.0000000  0.0000000  0.0000000 )
                  (  0.0000000  1.0000000  0.0000000 )
                  (  0.0000000  0.0000000 -1.0000000 )


      isym = 27     inv. 180 deg rotation - cart. axis [0,1,0]   

 cryst.   s(27) = (     1         -1          1      )
                  (     0          0          1      )
                  (     0          1          0      )

 cart.    s(27) = (  1.0000000  0.0000000  0.0000000 )
                  (  0.0000000 -1.0000000  0.0000000 )
                  (  0.0000000  0.0000000  1.0000000 )


      isym = 28     inv. 180 deg rotation - cart. axis [1,0,0]   

 cryst.   s(28) = (     0          1          0      )
                  (     1          0          0      )
                  (     1         -1          1      )

 cart.    s(28) = ( -1.0000000  0.0000000  0.0000000 )
                  (  0.0000000  1.0000000  0.0000000 )
                  (  0.0000000  0.0000000  1.0000000 )


      isym = 29     inv. 180 deg rotation - cart. axis [1,1,0]   

 cryst.   s(29) = (     0          0          1      )
                  (     0          1          0      )
                  (     1          0          0      )

 cart.    s(29) = (  0.0000000 -1.0000000  0.0000000 )
                  ( -1.0000000  0.0000000  0.0000000 )
                  (  0.0000000  0.0000000  1.0000000 )


      isym = 30     inv. 180 deg rotation - cart. axis [1,-1,0]  

 cryst.   s(30) = (     1          0          0      )
                  (     1         -1          1      )
                  (     0          0          1      )

 cart.    s(30) = (  0.0000000  1.0000000  0.0000000 )
                  (  1.0000000  0.0000000  0.0000000 )
                  (  0.0000000  0.0000000  1.0000000 )


      isym = 31     inv.  90 deg rotation - cart. axis [0,0,-1]  

 cryst.   s(31) = (    -1          1         -1      )
                  (    -1          0          0      )
                  (     0         -1          0      )

 cart.    s(31) = (  0.0000000 -1.0000000  0.0000000 )
                  (  1.0000000  0.0000000  0.0000000 )
                  (  0.0000000  0.0000000 -1.0000000 )


      isym = 32     inv.  90 deg rotation - cart. axis [0,0,1]   

 cryst.   s(32) = (     0         -1          0      )
                  (     0          0         -1      )
                  (    -1          1         -1      )

 cart.    s(32) = (  0.0000000  1.0000000  0.0000000 )
                  ( -1.0000000  0.0000000  0.0000000 )
                  (  0.0000000  0.0000000 -1.0000000 )


      isym = 33     inv. 180 deg rotation - cart. axis [1,0,1]   

 cryst.   s(33) = (    -1          1         -1      )
                  (     0          1          0      )
                  (     0          0          1      )

 cart.    s(33) = (  0.0000000  0.0000000 -1.0000000 )
                  (  0.0000000  1.0000000  0.0000000 )
                  ( -1.0000000  0.0000000  0.0000000 )


      isym = 34     inv. 180 deg rotation - cart. axis [-1,0,1]  

 cryst.   s(34) = (     1          0          0      )
                  (     0          0         -1      )
                  (     0         -1          0      )

 cart.    s(34) = (  0.0000000  0.0000000  1.0000000 )
                  (  0.0000000  1.0000000  0.0000000 )
                  (  1.0000000  0.0000000  0.0000000 )


      isym = 35     inv.  90 deg rotation - cart. axis [0,1,0]   

 cryst.   s(35) = (     0          0          1      )
                  (    -1          0          0      )
                  (    -1          1         -1      )

 cart.    s(35) = (  0.0000000  0.0000000 -1.0000000 )
                  (  0.0000000 -1.0000000  0.0000000 )
                  (  1.0000000  0.0000000  0.0000000 )


      isym = 36     inv.  90 deg rotation - cart. axis [0,-1,0]  

 cryst.   s(36) = (     0         -1          0      )
                  (     1         -1          1      )
                  (     1          0          0      )

 cart.    s(36) = (  0.0000000  0.0000000  1.0000000 )
                  (  0.0000000 -1.0000000  0.0000000 )
                  ( -1.0000000  0.0000000  0.0000000 )


      isym = 37     inv. 180 deg rotation - cart. axis [0,1,1]   

 cryst.   s(37) = (     0         -1          0      )
                  (    -1          0          0      )
                  (     0          0          1      )

 cart.    s(37) = (  1.0000000  0.0000000  0.0000000 )
                  (  0.0000000  0.0000000 -1.0000000 )
                  (  0.0000000 -1.0000000  0.0000000 )


      isym = 38     inv. 180 deg rotation - cart. axis [0,1,-1]  

 cryst.   s(38) = (     1          0          0      )
                  (     0          1          0      )
                  (    -1          1         -1      )

 cart.    s(38) = (  1.0000000  0.0000000  0.0000000 )
                  (  0.0000000  0.0000000  1.0000000 )
                  (  0.0000000  1.0000000  0.0000000 )


      isym = 39     inv.  90 deg rotation - cart. axis [-1,0,0]  

 cryst.   s(39) = (     0          0          1      )
                  (     1         -1          1      )
                  (     0         -1          0      )

 cart.    s(39) = ( -1.0000000  0.0000000  0.0000000 )
                  (  0.0000000  0.0000000 -1.0000000 )
                  (  0.0000000  1.0000000  0.0000000 )


      isym = 40     inv.  90 deg rotation - cart. axis [1,0,0]   

 cryst.   s(40) = (    -1          1         -1      )
                  (     0          0         -1      )
                  (     1          0          0      )

 cart.    s(40) = ( -1.0000000  0.0000000  0.0000000 )
                  (  0.0000000  0.0000000  1.0000000 )
                  (  0.0000000 -1.0000000  0.0000000 )


      isym = 41     inv. 120 deg rotation - cart. axis [-1,-1,-1]

 cryst.   s(41) = (    -1          0          0      )
                  (     0          0          1      )
                  (     1         -1          1      )

 cart.    s(41) = (  0.0000000 -1.0000000  0.0000000 )
                  (  0.0000000  0.0000000 -1.0000000 )
                  ( -1.0000000  0.0000000  0.0000000 )


      isym = 42     inv. 120 deg rotation - cart. axis [-1,1,1]  

 cryst.   s(42) = (     1         -1          1      )
                  (     0         -1          0      )
                  (    -1          0          0      )

 cart.    s(42) = (  0.0000000  1.0000000  0.0000000 )
                  (  0.0000000  0.0000000 -1.0000000 )
                  (  1.0000000  0.0000000  0.0000000 )


      isym = 43     inv. 120 deg rotation - cart. axis [1,1,-1]  

 cryst.   s(43) = (     0          1          0      )
                  (    -1          1         -1      )
                  (     0          0         -1      )

 cart.    s(43) = (  0.0000000 -1.0000000  0.0000000 )
                  (  0.0000000  0.0000000  1.0000000 )
                  (  1.0000000  0.0000000  0.0000000 )


      isym = 44     inv. 120 deg rotation - cart. axis [1,-1,1]  

 cryst.   s(44) = (     0          0         -1      )
                  (     1          0          0      )
                  (     0          1          0      )

 cart.    s(44) = (  0.0000000  1.0000000  0.0000000 )
                  (  0.0000000  0.0000000  1.0000000 )
                  ( -1.0000000  0.0000000  0.0000000 )


      isym = 45     inv. 120 deg rotation - cart. axis [1,1,1]   

 cryst.   s(45) = (    -1          0          0      )
                  (    -1          1         -1      )
                  (     0          1          0      )

 cart.    s(45) = (  0.0000000  0.0000000 -1.0000000 )
                  ( -1.0000000  0.0000000  0.0000000 )
                  (  0.0000000 -1.0000000  0.0000000 )


      isym = 46     inv. 120 deg rotation - cart. axis [-1,1,-1] 

 cryst.   s(46) = (     0          1          0      )
                  (     0          0          1      )
                  (    -1          0          0      )

 cart.    s(46) = (  0.0000000  0.0000000 -1.0000000 )
                  (  1.0000000  0.0000000  0.0000000 )
                  (  0.0000000  1.0000000  0.0000000 )


      isym = 47     inv. 120 deg rotation - cart. axis [1,-1,-1] 

 cryst.   s(47) = (     0          0         -1      )
                  (     0         -1          0      )
                  (     1         -1          1      )

 cart.    s(47) = (  0.0000000  0.0000000  1.0000000 )
                  (  1.0000000  0.0000000  0.0000000 )
                  (  0.0000000 -1.0000000  0.0000000 )


      isym = 48     inv. 120 deg rotation - cart. axis [-1,-1,1] 

 cryst.   s(48) = (     1         -1          1      )
                  (     1          0          0      )
                  (     0          0         -1      )

 cart.    s(48) = (  0.0000000  0.0000000  1.0000000 )
                  ( -1.0000000  0.0000000  0.0000000 )
                  (  0.0000000  1.0000000  0.0000000 )


     point group O_h (m-3m) 
     there are 10 classes
     the character table:

       E     8C3   3C2   6C4   6C2'  i     8S6   3s_h  6S4   6s_d 
A_1g   1.00  1.00  1.00  1.00  1.00  1.00  1.00  1.00  1.00  1.00
A_2g   1.00  1.00  1.00 -1.00 -1.00  1.00  1.00  1.00 -1.00 -1.00
E_g    2.00 -1.00  2.00  0.00  0.00  2.00 -1.00  2.00  0.00  0.00
T_1g   3.00  0.00 -1.00  1.00 -1.00  3.00  0.00 -1.00  1.00 -1.00
T_2g   3.00  0.00 -1.00 -1.00  1.00  3.00  0.00 -1.00 -1.00  1.00
A_1u   1.00  1.00  1.00  1.00  1.00 -1.00 -1.00 -1.00 -1.00 -1.00
A_2u   1.00  1.00  1.00 -1.00 -1.00 -1.00 -1.00 -1.00  1.00  1.00
E_u    2.00 -1.00  2.00  0.00  0.00 -2.00  1.00 -2.00  0.00  0.00
T_1u   3.00  0.00 -1.00  1.00 -1.00 -3.00  0.00  1.00 -1.00  1.00
T_2u   3.00  0.00 -1.00 -1.00  1.00 -3.00  0.00  1.00  1.00 -1.00

     the symmetry operations in each class and the name of the first element:

     E        1
          identity                                               
     8C3     17   19   20   18   24   21   22   23
          120 deg rotation - cart. axis [-1,-1,-1]               
     3C2      2    4    3
          180 deg rotation - cart. axis [0,0,1]                  
     6C4      7    8   15   16   12   11
           90 deg rotation - cart. axis [0,0,-1]                 
     6C2'     5    6   14   13   10    9
          180 deg rotation - cart. axis [1,1,0]                  
     i       25
          inversion                                              
     8S6     41   43   44   42   48   45   46   47
          inv. 120 deg rotation - cart. axis [-1,-1,-1]          
     3s_h    26   28   27
          inv. 180 deg rotation - cart. axis [0,0,1]             
     6S4     31   32   39   40   36   35
          inv.  90 deg rotation - cart. axis [0,0,-1]            
     6s_d    29   30   38   37   34   33
          inv. 180 deg rotation - cart. axis [1,1,0]             

   Cartesian axes

     site n.     atom                  positions (alat units)
         1           Fe  tau(   1) = (   0.0000000   0.0000000   0.0000000  )

   Crystallographic axes

     site n.     atom                  positions (cryst. coord.)
         1           Fe  tau(   1) = (  0.0000000  0.0000000  0.0000000  )

     number of k points=    29  Marzari-Vanderbilt smearing, width (Ry)=  0.0100
                       cart. coord. in units 2pi/alat
        k(    1) = (   0.0000000   0.0000000   0.0000000), wk =   0.0019531
        k(    2) = (   0.0000000  -0.1250000   0.1250000), wk =   0.0234375
        k(    3) = (   0.0000000  -0.2500000   0.2500000), wk =   0.0234375
        k(    4) = (   0.0000000  -0.3750000   0.3750000), wk =   0.0234375
        k(    5) = (   0.0000000   0.5000000  -0.5000000), wk =   0.0117188
        k(    6) = (  -0.1250000  -0.1250000   0.2500000), wk =   0.0468750
        k(    7) = (  -0.1250000  -0.2500000   0.3750000), wk =   0.0937500
        k(    8) = (  -0.1250000   0.6250000  -0.5000000), wk =   0.0937500
        k(    9) = (  -0.2500000   0.7500000  -0.5000000), wk =   0.0468750
        k(   10) = (  -0.2500000   0.6250000  -0.3750000), wk =   0.0468750
        k(   11) = (   0.0000000   0.0000000   0.2500000), wk =   0.0117188
        k(   12) = (   0.0000000  -0.1250000   0.3750000), wk =   0.0468750
        k(   13) = (   0.0000000  -0.2500000   0.5000000), wk =   0.0468750
        k(   14) = (   0.0000000   0.6250000  -0.3750000), wk =   0.0234375
        k(   15) = (  -0.1250000  -0.1250000   0.5000000), wk =   0.0468750
        k(   16) = (  -0.1250000   0.7500000  -0.3750000), wk =   0.0937500
        k(   17) = (  -0.2500000   0.2500000   0.2500000), wk =   0.0156250
        k(   18) = (  -0.2500000   0.7500000  -0.2500000), wk =   0.0156250
        k(   19) = (   0.6250000  -0.6250000   0.2500000), wk =   0.0468750
        k(   20) = (   0.5000000  -0.5000000   0.2500000), wk =   0.0234375
        k(   21) = (   0.5000000  -0.6250000   0.3750000), wk =   0.0468750
        k(   22) = (   0.0000000   0.0000000   0.5000000), wk =   0.0117188
        k(   23) = (   0.0000000  -0.1250000   0.6250000), wk =   0.0468750
        k(   24) = (   0.0000000   0.7500000  -0.2500000), wk =   0.0234375
        k(   25) = (  -0.1250000   0.8750000  -0.2500000), wk =   0.0468750
        k(   26) = (   0.5000000  -0.5000000   0.5000000), wk =   0.0039062
        k(   27) = (   0.0000000   0.0000000   0.7500000), wk =   0.0117188
        k(   28) = (   0.0000000   0.8750000  -0.1250000), wk =   0.0234375
        k(   29) = (   0.0000000   0.0000000  -1.0000000), wk =   0.0019531

                       cryst. coord.
        k(    1) = (   0.0000000   0.0000000   0.0000000), wk =   0.0019531
        k(    2) = (   0.0000000   0.0000000   0.1250000), wk =   0.0234375
        k(    3) = (   0.0000000   0.0000000   0.2500000), wk =   0.0234375
        k(    4) = (   0.0000000   0.0000000   0.3750000), wk =   0.0234375
        k(    5) = (   0.0000000   0.0000000  -0.5000000), wk =   0.0117188
        k(    6) = (   0.0000000   0.1250000   0.2500000), wk =   0.0468750
        k(    7) = (   0.0000000   0.1250000   0.3750000), wk =   0.0937500
        k(    8) = (   0.0000000   0.1250000  -0.5000000), wk =   0.0937500
        k(    9) = (   0.0000000   0.2500000  -0.5000000), wk =   0.0468750
        k(   10) = (   0.0000000   0.2500000  -0.3750000), wk =   0.0468750
        k(   11) = (   0.1250000   0.1250000   0.1250000), wk =   0.0117188
        k(   12) = (   0.1250000   0.1250000   0.2500000), wk =   0.0468750
        k(   13) = (   0.1250000   0.1250000   0.3750000), wk =   0.0468750
        k(   14) = (   0.1250000   0.1250000  -0.5000000), wk =   0.0234375
        k(   15) = (   0.1250000   0.2500000   0.3750000), wk =   0.0468750
        k(   16) = (   0.1250000   0.2500000  -0.5000000), wk =   0.0937500
        k(   17) = (   0.1250000   0.3750000   0.1250000), wk =   0.0156250
        k(   18) = (   0.1250000   0.3750000  -0.3750000), wk =   0.0156250
        k(   19) = (   0.1250000  -0.5000000   0.1250000), wk =   0.0468750
        k(   20) = (   0.1250000  -0.3750000   0.1250000), wk =   0.0234375
        k(   21) = (   0.1250000  -0.3750000   0.2500000), wk =   0.0468750
        k(   22) = (   0.2500000   0.2500000   0.2500000), wk =   0.0117188
        k(   23) = (   0.2500000   0.2500000   0.3750000), wk =   0.0468750
        k(   24) = (   0.2500000   0.2500000  -0.5000000), wk =   0.0234375
        k(   25) = (   0.2500000   0.3750000  -0.5000000), wk =   0.0468750
        k(   26) = (   0.2500000  -0.2500000   0.2500000), wk =   0.0039062
        k(   27) = (   0.3750000   0.3750000   0.3750000), wk =   0.0117188
        k(   28) = (   0.3750000   0.3750000  -0.5000000), wk =   0.0234375
        k(   29) = (  -0.5000000  -0.5000000  -0.5000000), wk =   0.0019531

     Dense  grid:     9189 G-vectors     FFT dimensions: (  30,  30,  30)

     Smooth grid:     1745 G-vectors     FFT dimensions: (  18,  18,  18)

     Estimated max dynamical RAM per process >       5.62MB

     Estimated total allocated dynamical RAM >      11.24MB
     Generating pointlists ...
     new r_m :   0.3572 (alat units)  1.9362 (a.u.) for type    1

     Initial potential from superposition of free atoms

     starting charge    7.99953, renormalised to    8.00000
     Starting wfc are    6 randomized atomic wfcs +    2 random wfc

     total cpu time spent up to now is        0.3 secs

     Self-consistent Calculation

     iteration #  1     ecut=    30.00 Ry     beta=0.50
     Davidson diagonalization with overlap
     ethr =  1.00E-02,  avg # of iterations =  4.2

     total cpu time spent up to now is        0.7 secs

     total energy              =     -55.42798983 Ry
     Harris-Foulkes estimate   =     -55.57903355 Ry
     estimated scf accuracy    <       0.35200880 Ry

     total magnetization       =     2.80 Bohr mag/cell
     absolute magnetization    =     2.80 Bohr mag/cell

     iteration #  2     ecut=    30.00 Ry     beta=0.50
     Davidson diagonalization with overlap
     ethr =  4.40E-03,  avg # of iterations =  1.9

     total cpu time spent up to now is        1.0 secs

     total energy              =     -55.53048311 Ry
     Harris-Foulkes estimate   =     -55.56229676 Ry
     estimated scf accuracy    <       0.09228269 Ry

     total magnetization       =     2.68 Bohr mag/cell
     absolute magnetization    =     2.69 Bohr mag/cell

     iteration #  3     ecut=    30.00 Ry     beta=0.50
     Davidson diagonalization with overlap
     ethr =  1.15E-03,  avg # of iterations =  1.3

     total cpu time spent up to now is        1.3 secs

     total energy              =     -55.55657771 Ry
     Harris-Foulkes estimate   =     -55.54798395 Ry
     estimated scf accuracy    <       0.00414329 Ry

     total magnetization       =     2.62 Bohr mag/cell
     absolute magnetization    =     2.65 Bohr mag/cell

     iteration #  4     ecut=    30.00 Ry     beta=0.50
     Davidson diagonalization with overlap
     ethr =  5.18E-05,  avg # of iterations =  3.0

     total cpu time spent up to now is        1.6 secs

     total energy              =     -55.55962682 Ry
     Harris-Foulkes estimate   =     -55.55942729 Ry
     estimated scf accuracy    <       0.00079834 Ry

     total magnetization       =     2.39 Bohr mag/cell
     absolute magnetization    =     2.49 Bohr mag/cell

     iteration #  5     ecut=    30.00 Ry     beta=0.50
     Davidson diagonalization with overlap
     ethr =  9.98E-06,  avg # of iterations =  2.8

     total cpu time spent up to now is        1.9 secs

     total energy              =     -55.55983734 Ry
     Harris-Foulkes estimate   =     -55.55977183 Ry
     estimated scf accuracy    <       0.00016861 Ry

     total magnetization       =     2.35 Bohr mag/cell
     absolute magnetization    =     2.46 Bohr mag/cell

     iteration #  6     ecut=    30.00 Ry     beta=0.50
     Davidson diagonalization with overlap
     ethr =  2.11E-06,  avg # of iterations =  2.0

     total cpu time spent up to now is        2.1 secs

     total energy              =     -55.55987265 Ry
     Harris-Foulkes estimate   =     -55.55988632 Ry
     estimated scf accuracy    <       0.00003328 Ry

     total magnetization       =     2.33 Bohr mag/cell
     absolute magnetization    =     2.44 Bohr mag/cell

     iteration #  7     ecut=    30.00 Ry     beta=0.50
     Davidson diagonalization with overlap
     ethr =  4.16E-07,  avg # of iterations =  2.3

     total cpu time spent up to now is        2.4 secs

     total energy              =     -55.55988427 Ry
     Harris-Foulkes estimate   =     -55.55988424 Ry
     estimated scf accuracy    <       0.00000335 Ry

     total magnetization       =     2.33 Bohr mag/cell
     absolute magnetization    =     2.44 Bohr mag/cell

     iteration #  8     ecut=    30.00 Ry     beta=0.50
     Davidson diagonalization with overlap
     ethr =  4.19E-08,  avg # of iterations =  2.6

     total cpu time spent up to now is        2.8 secs

     total energy              =     -55.55988623 Ry
     Harris-Foulkes estimate   =     -55.55988632 Ry
     estimated scf accuracy    <       0.00000028 Ry

     total magnetization       =     2.33 Bohr mag/cell
     absolute magnetization    =     2.43 Bohr mag/cell

     iteration #  9     ecut=    30.00 Ry     beta=0.50
     Davidson diagonalization with overlap
     ethr =  3.51E-09,  avg # of iterations =  2.8

     total cpu time spent up to now is        3.1 secs

     total energy              =     -55.55988636 Ry
     Harris-Foulkes estimate   =     -55.55988636 Ry
     estimated scf accuracy    <       0.00000002 Ry

     total magnetization       =     2.33 Bohr mag/cell
     absolute magnetization    =     2.43 Bohr mag/cell

     iteration # 10     ecut=    30.00 Ry     beta=0.50
     Davidson diagonalization with overlap
     ethr =  2.70E-10,  avg # of iterations =  2.8

     Magnetic moment per site:
     atom:    1    charge:    6.4884    magn:    2.3708    constr:    0.0000

     total cpu time spent up to now is        3.5 secs

     End of self-consistent calculation

 ------ SPIN UP ------------


          k = 0.0000 0.0000 0.0000 (   225 PWs)   bands (ev):

     4.2281  10.1694  10.1694  10.1694  11.4639  11.4639  36.7683  36.7683

     occupation numbers 
     1.0000   1.0000   1.0000   1.0000   1.0000   1.0000   0.0000   0.0000

          k = 0.0000-0.1250 0.1250 (   219 PWs)   bands (ev):

     4.8501  10.0096  10.1467  10.4947  11.3280  11.4778  33.5025  35.7633

     occupation numbers 
     1.0000   1.0000   1.0000   1.0000   1.0000   1.0000   0.0000   0.0000

          k = 0.0000-0.2500 0.2500 (   219 PWs)   bands (ev):

     6.4470   9.6384  10.0823  11.2752  11.3398  11.5275  27.8576  33.1928

     occupation numbers 
     1.0000   1.0000   1.0000   1.0000   1.0000   1.0000   0.0000   0.0000

          k = 0.0000-0.3750 0.3750 (   220 PWs)   bands (ev):

     7.6088   9.2849  11.1363  11.5361  11.6016  12.2980  22.4588  31.1422

     occupation numbers 
     1.0000   1.0000   1.0000   1.0000   1.0000   1.0546   0.0000   0.0000

          k = 0.0000 0.5000-0.5000 (   214 PWs)   bands (ev):

     7.7064   9.1435  11.4789  11.6399  12.7391  13.0585  19.4797  30.3970

     occupation numbers 
     1.0000   1.0000   1.0000   1.0000   0.0002   0.0000   0.0000   0.0000

          k =-0.1250-0.1250 0.2500 (   216 PWs)   bands (ev):

     5.9895   9.8392   9.8905  11.1740  11.1788  11.5687  30.5590  31.6744

     occupation numbers 
     1.0000   1.0000   1.0000   1.0000   1.0000   1.0000   0.0000   0.0000

          k =-0.1250-0.2500 0.3750 (   220 PWs)   bands (ev):

     7.5831   9.4621   9.9184  11.2555  11.6748  12.4219  25.3216  29.0811

     occupation numbers 
     1.0000   1.0000   1.0000   1.0000   1.0000   0.5444   0.0000   0.0000

          k =-0.1250 0.6250-0.5000 (   220 PWs)   bands (ev):

     8.0054   9.2285  10.7765  11.4408  11.9622  14.2357  20.5554  27.8119

     occupation numbers 
     1.0000   1.0000   1.0000   1.0000   1.0001   0.0000   0.0000   0.0000

          k =-0.2500 0.7500-0.5000 (   221 PWs)   bands (ev):

     8.5431   9.2491   9.8488  11.3723  11.8027  14.6808  23.2375  24.0006

     occupation numbers 
     1.0000   1.0000   1.0000   1.0000   1.0000   0.0000   0.0000   0.0000

          k =-0.2500 0.6250-0.3750 (   217 PWs)   bands (ev):

     8.6588   9.2756   9.9157  11.5311  11.8457  17.2622  19.8000  23.0637

     occupation numbers 
     1.0000   1.0000   1.0000   1.0000   1.0000   0.0000   0.0000   0.0000

          k = 0.0000 0.0000 0.2500 (   217 PWs)   bands (ev):

     5.4442  10.1977  10.1977  10.4954  10.9329  11.6689  32.8322  34.6349

     occupation numbers 
     1.0000   1.0000   1.0000   1.0000   1.0000   1.0000   0.0000   0.0000

          k = 0.0000-0.1250 0.3750 (   217 PWs)   bands (ev):

     6.9415   9.9580  10.0134  10.8192  11.2663  11.9112  28.2972  32.0925

     occupation numbers 
     1.0000   1.0000   1.0000   1.0000   1.0000   1.0000   0.0000   0.0000

          k = 0.0000-0.2500 0.5000 (   223 PWs)   bands (ev):

     7.9957   9.6477  10.0235  11.1997  12.2444  12.9802  22.8349  30.1301

     occupation numbers 
     1.0000   1.0000   1.0000   1.0000   1.0815   0.0000   0.0000   0.0000

          k = 0.0000 0.6250-0.3750 (   222 PWs)   bands (ev):

     8.0470   9.5210  10.3140  11.2149  12.7006  14.8426  19.5818  29.2982

     occupation numbers 
     1.0000   1.0000   1.0000   1.0000   0.0007   0.0000   0.0000   0.0000

          k =-0.1250-0.1250 0.5000 (   224 PWs)   bands (ev):

     8.1750   9.4362  10.1170  10.9196  11.8346  13.0327  25.9189  26.5268

     occupation numbers 
     1.0000   1.0000   1.0000   1.0000   1.0000   0.0000   0.0000   0.0000

          k =-0.1250 0.7500-0.3750 (   221 PWs)   bands (ev):

     8.5459   9.3948   9.8530  11.2603  12.2678  15.7443  21.1201  24.9518

     occupation numbers 
     1.0000   1.0000   1.0000   1.0000   1.0815   0.0000   0.0000   0.0000

          k =-0.2500 0.2500 0.2500 (   222 PWs)   bands (ev):

     7.4325   9.4600   9.4600  11.4651  11.4651  12.4512  28.1998  28.1998

     occupation numbers 
     1.0000   1.0000   1.0000   1.0000   1.0000   0.3896   0.0000   0.0000

          k =-0.2500 0.7500-0.2500 (   221 PWs)   bands (ev):

     9.0932   9.0932   9.4695  11.8646  11.8646  19.3874  19.3874  21.5532

     occupation numbers 
     1.0000   1.0000   1.0000   1.0000   1.0000   0.0000   0.0000   0.0000

          k = 0.6250-0.6250 0.2500 (   221 PWs)   bands (ev):

     8.4954   9.1743   9.7841  11.5238  11.6144  14.3752  23.1627  26.6420

     occupation numbers 
     1.0000   1.0000   1.0000   1.0000   1.0000   0.0000   0.0000   0.0000

          k = 0.5000-0.5000 0.2500 (   218 PWs)   bands (ev):

     8.4502   9.0782  10.4984  11.5804  11.6568  16.4237  19.7466  26.0947

     occupation numbers 
     1.0000   1.0000   1.0000   1.0000   1.0000   0.0000   0.0000   0.0000

          k = 0.5000-0.6250 0.3750 (   226 PWs)   bands (ev):

     8.8918   9.2611   9.6979  11.6195  11.6735  17.3622  21.4939  22.5014

     occupation numbers 
     1.0000   1.0000   1.0000   1.0000   1.0000   0.0000   0.0000   0.0000

          k = 0.0000 0.0000 0.5000 (   233 PWs)   bands (ev):

     7.9850   9.6431  10.6011  10.6011  11.2994  12.6836  29.0826  29.0826

     occupation numbers 
     1.0000   1.0000   1.0000   1.0000   1.0000   0.0014   0.0000   0.0000

          k = 0.0000-0.1250 0.6250 (   223 PWs)   bands (ev):

     8.5226   9.0243  10.6151  11.0374  12.1244  14.7216  23.9314  26.8025

     occupation numbers 
     1.0000   1.0000   1.0000   1.0000   1.0150   0.0000   0.0000   0.0000

          k = 0.0000 0.7500-0.2500 (   222 PWs)   bands (ev):

     8.4444   8.9706  10.5463  11.1495  12.6093  17.5195  20.0381  25.9025

     occupation numbers 
     1.0000   1.0000   1.0000   1.0000   0.0152   0.0000   0.0000   0.0000

          k =-0.1250 0.8750-0.2500 (   222 PWs)   bands (ev):

     8.5557   8.5654  10.6720  11.7383  12.3235  17.8943  22.1715  22.8084

     occupation numbers 
     1.0000   1.0000   1.0000   1.0000   1.0004   0.0000   0.0000   0.0000

          k = 0.5000-0.5000 0.5000 (   216 PWs)   bands (ev):

     9.3115   9.3115   9.3115  11.6742  11.6742  20.8874  20.8874  20.8874

     occupation numbers 
     1.0000   1.0000   1.0000   1.0000   1.0000   0.0000   0.0000   0.0000

          k = 0.0000 0.0000 0.7500 (   228 PWs)   bands (ev):

     8.3032   8.3775  11.6690  11.6690  12.1299  17.1688  24.2735  24.2735

     occupation numbers 
     1.0000   1.0000   1.0000   1.0000   1.0170   0.0000   0.0000   0.0000

          k = 0.0000 0.8750-0.1250 (   232 PWs)   bands (ev):

     8.1097   8.1435  11.8218  11.9943  12.5185  20.3646  21.1414  23.2481

     occupation numbers 
     1.0000   1.0000   1.0000   1.0003   0.1329   0.0000   0.0000   0.0000

          k = 0.0000 0.0000-1.0000 (   236 PWs)   bands (ev):

     7.8667   7.8667  12.4812  12.4812  12.4812  22.1430  22.1430  22.1431

     occupation numbers 
     1.0000   1.0000   0.2544   0.2544   0.2544   0.0000   0.0000   0.0000

 ------ SPIN DOWN ----------


          k = 0.0000 0.0000 0.0000 (   225 PWs)   bands (ev):

     4.5424  12.3329  12.3329  12.3329  14.0844  14.0844  36.8638  36.8638

     occupation numbers 
     1.0000   0.9724   0.9724   0.9724   0.0000   0.0000   0.0000   0.0000

          k = 0.0000-0.1250 0.1250 (   219 PWs)   bands (ev):

     5.1692  12.1382  12.2791  12.6919  13.9057  14.1015  33.9863  35.9959

     occupation numbers 
     1.0000   1.0203   1.0756   0.0010   0.0000   0.0000   0.0000   0.0000

          k = 0.0000-0.2500 0.2500 (   219 PWs)   bands (ev):

     6.8555  11.6907  12.0094  13.6349  13.7988  14.1677  28.6843  33.4874

     occupation numbers 
     1.0000   1.0000   1.0005   0.0000   0.0000   0.0000   0.0000   0.0000

          k = 0.0000-0.3750 0.3750 (   220 PWs)   bands (ev):

     8.6396  11.2701  12.2718  13.9539  14.2719  14.7290  23.5960  31.3858

     occupation numbers 
     1.0000   1.0000   1.0799   0.0000   0.0000   0.0000   0.0000   0.0000

          k = 0.0000 0.5000-0.5000 (   214 PWs)   bands (ev):

     9.1234  11.1033  13.3336  14.0086  14.3272  15.2447  20.9870  30.6098

     occupation numbers 
     1.0000   1.0000   0.0000   0.0000   0.0000   0.0000   0.0000   0.0000

          k =-0.1250-0.1250 0.2500 (   216 PWs)   bands (ev):

     6.3407  11.9033  11.9582  13.4164  13.7007  14.2047  31.2354  32.2845

     occupation numbers 
     1.0000   1.0000   1.0001   0.0000   0.0000   0.0000   0.0000   0.0000

          k =-0.1250-0.2500 0.3750 (   220 PWs)   bands (ev):

     8.2334  11.4432  11.6847  13.7481  14.3000  14.6662  26.2558  29.7376

     occupation numbers 
     1.0000   1.0000   1.0000   0.0000   0.0000   0.0000   0.0000   0.0000

          k =-0.1250 0.6250-0.5000 (   220 PWs)   bands (ev):

     9.3779  11.1675  12.2009  13.9476  14.4628  16.0010  21.8469  28.4413

     occupation numbers 
     1.0000   1.0000   1.0575   0.0000   0.0000   0.0000   0.0000   0.0000

          k =-0.2500 0.7500-0.5000 (   221 PWs)   bands (ev):

     9.7848  11.0550  11.5204  13.8674  14.3840  16.5148  24.2940  24.8126

     occupation numbers 
     1.0000   1.0000   1.0000   0.0000   0.0000   0.0000   0.0000   0.0000

          k =-0.2500 0.6250-0.3750 (   217 PWs)   bands (ev):

    10.2703  11.0863  11.4809  14.0470  14.3802  18.5923  21.0921  23.9347

     occupation numbers 
     1.0000   1.0000   1.0000   0.0000   0.0000   0.0000   0.0000   0.0000

          k = 0.0000 0.0000 0.2500 (   217 PWs)   bands (ev):

     5.7729  12.3235  12.3235  12.6980  13.4058  14.3240  33.3003  35.2529

     occupation numbers 
     1.0000   1.0004   1.0004   0.0008   0.0000   0.0000   0.0000   0.0000

          k = 0.0000-0.1250 0.3750 (   217 PWs)   bands (ev):

     7.3824  12.0319  12.0522  13.1569  13.5508  14.5100  29.1215  32.5893

     occupation numbers 
     1.0000   1.0011   1.0021   0.0000   0.0000   0.0000   0.0000   0.0000

          k = 0.0000-0.2500 0.5000 (   223 PWs)   bands (ev):

     9.0808  11.6629  11.7151  13.5570  14.6661  15.0149  23.9237  30.8582

     occupation numbers 
     1.0000   1.0000   1.0000   0.0000   0.0000   0.0000   0.0000   0.0000

          k = 0.0000 0.6250-0.3750 (   222 PWs)   bands (ev):

     9.5429  11.5131  11.9682  13.6194  15.2007  16.1136  21.0172  29.9713

     occupation numbers 
     1.0000   1.0000   1.0001   0.0000   0.0000   0.0000   0.0000   0.0000

          k =-0.1250-0.1250 0.5000 (   224 PWs)   bands (ev):

     8.9983  11.4180  12.1019  13.2071  14.2653  15.1597  26.8923  27.2854

     occupation numbers 
     1.0000   1.0000   1.0088   0.0000   0.0000   0.0000   0.0000   0.0000

          k =-0.1250 0.7500-0.3750 (   221 PWs)   bands (ev):

    10.0617  11.1318  11.7964  13.5950  14.6950  17.2220  22.2761  25.7702

     occupation numbers 
     1.0000   1.0000   1.0000   0.0000   0.0000   0.0000   0.0000   0.0000

          k =-0.2500 0.2500 0.2500 (   222 PWs)   bands (ev):

     7.8927  11.4211  11.4211  14.0725  14.0725  14.6775  28.9540  28.9540

     occupation numbers 
     1.0000   1.0000   1.0000   0.0000   0.0000   0.0000   0.0000   0.0000

          k =-0.2500 0.7500-0.2500 (   221 PWs)   bands (ev):

    10.8284  10.8284  11.3184  14.2510  14.2510  20.5799  20.5799  22.4989

     occupation numbers 
     1.0000   1.0000   1.0000   0.0000   0.0000   0.0000   0.0000   0.0000

          k = 0.6250-0.6250 0.2500 (   221 PWs)   bands (ev):

     9.6034  11.0560  11.3086  14.1214  14.2837  16.3078  24.1590  27.4058

     occupation numbers 
     1.0000   1.0000   1.0000   0.0000   0.0000   0.0000   0.0000   0.0000

          k = 0.5000-0.5000 0.2500 (   218 PWs)   bands (ev):

     9.9589  10.9314  11.8851  14.1790  14.3492  17.8100  21.0899  26.8531

     occupation numbers 
     1.0000   1.0000   1.0000   0.0000   0.0000   0.0000   0.0000   0.0000

          k = 0.5000-0.6250 0.3750 (   226 PWs)   bands (ev):

    10.5355  10.9451  11.1924  14.2611  14.3463  18.7904  22.5892  23.3698

     occupation numbers 
     1.0000   1.0000   1.0000   0.0000   0.0000   0.0000   0.0000   0.0000

          k = 0.0000 0.0000 0.5000 (   233 PWs)   bands (ev):

     8.6733  11.7943  12.7042  12.7042  13.6038  14.9631  29.8740  29.8740

     occupation numbers 
     1.0000   1.0000   0.0006   0.0006   0.0000   0.0000   0.0000   0.0000

          k = 0.0000-0.1250 0.6250 (   223 PWs)   bands (ev):

     9.8402  10.9491  12.7234  13.2210  14.5281  16.2818  24.8697  27.5309

     occupation numbers 
     1.0000   1.0000   0.0003   0.0000   0.0000   0.0000   0.0000   0.0000

          k = 0.0000 0.7500-0.2500 (   222 PWs)   bands (ev):

    10.1740  10.6922  12.6457  13.3310  15.0963  18.5945  21.2225  26.5689

     occupation numbers 
     1.0000   1.0000   0.0050   0.0000   0.0000   0.0000   0.0000   0.0000

          k =-0.1250 0.8750-0.2500 (   222 PWs)   bands (ev):

    10.2455  10.4021  12.7330  14.0222  14.7390  19.0117  23.1274  23.5856

     occupation numbers 
     1.0000   1.0000   0.0002   0.0000   0.0000   0.0000   0.0000   0.0000

          k = 0.5000-0.5000 0.5000 (   216 PWs)   bands (ev):

    10.9469  10.9469  10.9469  14.3717  14.3717  21.9949  21.9949  21.9949

     occupation numbers 
     1.0000   1.0000   1.0000   0.0000   0.0000   0.0000   0.0000   0.0000

          k = 0.0000 0.0000 0.7500 (   228 PWs)   bands (ev):

     9.9450  10.2667  13.9117  13.9117  14.5481  18.1965  24.9028  24.9028

     occupation numbers 
     1.0000   1.0000   0.0000   0.0000   0.0000   0.0000   0.0000   0.0000

          k = 0.0000 0.8750-0.1250 (   232 PWs)   bands (ev):

     9.9201   9.9224  14.1240  14.2978  14.9926  21.1084  21.8714  23.7795

     occupation numbers 
     1.0000   1.0000   0.0000   0.0000   0.0000   0.0000   0.0000   0.0000

          k = 0.0000 0.0000-1.0000 (   236 PWs)   bands (ev):

     9.6640   9.6640  14.9501  14.9501  14.9501  22.5328  22.5328  22.5328

     occupation numbers 
     1.0000   1.0000   0.0000   0.0000   0.0000   0.0000   0.0000   0.0000

     the Fermi energy is    12.4490 ev

!    total energy              =     -55.55988637 Ry
     Harris-Foulkes estimate   =     -55.55988637 Ry
     estimated scf accuracy    <          4.2E-09 Ry

     The total energy is the sum of the following terms:

     one-electron contribution =       6.65687662 Ry
     hartree contribution      =       6.67557495 Ry
     xc contribution           =     -25.92020277 Ry
     ewald contribution        =     -42.97249830 Ry
     smearing contrib. (-TS)   =       0.00036313 Ry

     total magnetization       =     2.33 Bohr mag/cell
     absolute magnetization    =     2.43 Bohr mag/cell

     convergence has been achieved in  10 iterations

     Writing output data file fe_bcc.save

     init_run     :      0.21s CPU      0.23s WALL (       1 calls)
     electrons    :      2.98s CPU      3.20s WALL (       1 calls)

     Called by init_run:
     wfcinit      :      0.06s CPU      0.07s WALL (       1 calls)
     wfcinit:atom :      0.00s CPU      0.00s WALL (      58 calls)
     wfcinit:wfcr :      0.06s CPU      0.06s WALL (      58 calls)
     potinit      :      0.01s CPU      0.01s WALL (       1 calls)

     Called by electrons:
     c_bands      :      2.04s CPU      2.26s WALL (      10 calls)
     sum_band     :      0.70s CPU      0.69s WALL (      10 calls)
     v_of_rho     :      0.04s CPU      0.04s WALL (      11 calls)
     v_h          :      0.01s CPU      0.01s WALL (      11 calls)
     v_xc         :      0.03s CPU      0.03s WALL (      11 calls)
     newd         :      0.18s CPU      0.18s WALL (      11 calls)
     mix_rho      :      0.02s CPU      0.02s WALL (      10 calls)

     Called by c_bands:
     init_us_2    :      0.04s CPU      0.04s WALL (    1218 calls)
     cegterg      :      1.95s CPU      2.16s WALL (     580 calls)

     Called by sum_band:
     sum_band:bec :      0.00s CPU      0.00s WALL (     580 calls)
     addusdens    :      0.32s CPU      0.28s WALL (      10 calls)

     Called by *egterg:
     h_psi        :      1.50s CPU      1.63s WALL (    2118 calls)
     s_psi        :      0.06s CPU      0.07s WALL (    2118 calls)
     g_psi        :      0.01s CPU      0.01s WALL (    1480 calls)
     cdiaghg      :      0.23s CPU      0.24s WALL (    2060 calls)
     cegterg:over :      0.06s CPU      0.08s WALL (    1480 calls)
     cegterg:upda :      0.05s CPU      0.08s WALL (    1480 calls)
     cegterg:last :      0.02s CPU      0.02s WALL (     580 calls)

     Called by h_psi:
     h_psi:pot    :      1.50s CPU      1.62s WALL (    2118 calls)
     h_psi:calbec :      0.05s CPU      0.06s WALL (    2118 calls)
     vloc_psi     :      1.38s CPU      1.47s WALL (    2118 calls)
     add_vuspsi   :      0.06s CPU      0.08s WALL (    2118 calls)

     General routines
     calbec       :      0.07s CPU      0.07s WALL (    2698 calls)
     fft          :      0.07s CPU      0.08s WALL (     177 calls)
     ffts         :      0.00s CPU      0.00s WALL (      42 calls)
     fftw         :      1.47s CPU      1.57s WALL (   28032 calls)
     interpolate  :      0.02s CPU      0.03s WALL (      42 calls)
     davcio       :      0.00s CPU      0.01s WALL (      58 calls)

     Parallel routines
     fft_scatter  :      0.24s CPU      0.30s WALL (   28251 calls)

     PWSCF        :     3.34s CPU         3.61s WALL


   This run was terminated on:  12:42:49   6Sep2017            

=------------------------------------------------------------------------------=
   JOB DONE.
=------------------------------------------------------------------------------=
