Defaulting to ethernet
No MPI process pinning
No OMP Thread Affinity
Starting MPD ring...
/opt/pbs/default/bin/pbs_tmrsh cx1-132-1-9.cx1.hpc.ic.ac.uk -n /opt/pbs/default/bin/pbs_attach -j 157598.cx1 /apps/intel/impi/5.1.1.109/compilers_and_libraries_2016.0.109/linux/mpi/bin/mpd -n -h cx1-132-1-9 -p 44068 --ncpus=1 -e -d
PBS has allocated the following nodes:
cx1-132-1-9
cx1-132-1-9
cx1-132-1-9
cx1-132-1-9
cx1-132-1-9
cx1-132-1-9
cx1-132-1-9
cx1-132-1-9
cx1-132-1-9
cx1-132-1-9
cx1-132-1-9
cx1-132-1-9
cx1-132-1-9
cx1-132-1-9
cx1-132-1-9
cx1-132-1-9
---
mpiexec.intel -genv I_MPI_DEVICE ssm -genv I_MPI_DEBUG 0 -genv I_MPI_FALLBACK_DEVICE disable -genv DAPL_MAX_CM_RETRIES 500 -genv DAPL_MAX_CM_RESPONSE_TIME 300 -genv I_MPI_DAPL_CONNECTION_TIMEOUT 300 -genv I_MPI_PIN no -genv I_MPI_PIN_MODE none -machinefile /var/tmp/pbs.157598.cx1/tmp.DaXcmmyXyF -n 16 -wdir /var/tmp/pbs.157598.cx1 pw.x -i fe_bcc_fm.main.in

Job output begins below
-----------------------

     Program PWSCF v.5.3.0 (svn rev. 11974) starts on 13Sep2017 at  1:17:14 

     This program is part of the open-source Quantum ESPRESSO suite
     for quantum simulation of materials; please cite
         "P. Giannozzi et al., J. Phys.:Condens. Matter 21 395502 (2009);
          URL http://www.quantum-espresso.org", 
     in publications or presentations arising from this work. More details at
     http://www.quantum-espresso.org/quote

     Parallel version (MPI & OpenMP), running on      16 processor cores
     Number of MPI processes:                16
     Threads/MPI process:                     1
     R & G space division:  proc/nbgrp/npool/nimage =      16
     Reading input from fe_bcc_fm.main.in

     Current dimensions of program PWSCF are:
     Max number of different atomic species (ntypx) = 10
     Max number of k-points (npk) =  40000
     Max angular momentum in pseudopotentials (lmaxx) =  3
               file Fe.pbe-spn-kjpaw_psl.0.2.1.UPF: wavefunction(s)  3D renormalized

     Subspace diagonalization in iterative solution of the eigenvalue problem:
     a serial algorithm will be used

 
     Parallelization info
     --------------------
     sticks:   dense  smooth     PW     G-vecs:    dense   smooth      PW
     Min          83      39     12                 1906      617     108
     Max          84      40     13                 1907      636     110
     Sum        1335     627    201                30501    10005    1745
 
     Generating pointlists ...
     new r_m :   0.3572 (alat units)  1.9362 (a.u.) for type    1


     bravais-lattice index     =            3
     lattice parameter (alat)  =       5.4200  a.u.
     unit-cell volume          =      79.6100 (a.u.)^3
     number of atoms/cell      =            1
     number of atomic types    =            1
     number of electrons       =        16.00
     number of Kohn-Sham states=           18
     kinetic-energy cutoff     =      95.0000  Ry
     charge density cutoff     =     800.0000  Ry
     convergence threshold     =      1.0E-08
     mixing beta               =       0.5000
     number of iterations used =            8  plain     mixing
     Exchange-correlation      =  SLA  PW   PBX  PBC ( 1  4  3  4 0 0)
     nstep                     =        50000


     celldm(1)=   5.420000  celldm(2)=   0.000000  celldm(3)=   0.000000
     celldm(4)=   0.000000  celldm(5)=   0.000000  celldm(6)=   0.000000

     crystal axes: (cart. coord. in units of alat)
               a(1) = (   0.500000   0.500000   0.500000 )  
               a(2) = (  -0.500000   0.500000   0.500000 )  
               a(3) = (  -0.500000  -0.500000   0.500000 )  

     reciprocal axes: (cart. coord. in units 2 pi/alat)
               b(1) = (  1.000000  0.000000  1.000000 )  
               b(2) = ( -1.000000  1.000000  0.000000 )  
               b(3) = (  0.000000 -1.000000  1.000000 )  


     PseudoPot. # 1 for Fe read from file:
     ./Fe.pbe-spn-kjpaw_psl.0.2.1.UPF
     MD5 check sum: a0a08122d52b112de96d1da1d7dd020f
     Pseudo is Projector augmented-wave + core cor, Zval = 16.0
     Generated using "atomic" code by A. Dal Corso  v.5.0.2 svn rev. 9415
     Shape of augmentation charge: PSQ
     Using radial grid of 1191 points,  6 beta functions with: 
                l(1) =   0
                l(2) =   0
                l(3) =   1
                l(4) =   1
                l(5) =   2
                l(6) =   2
     Q(r) pseudized with 0 coefficients 


     atomic species   valence    mass     pseudopotential
        Fe            16.00    55.84500     Fe( 1.00)

     Starting magnetic structure 
     atomic species   magnetization
        Fe           0.600

     48 Sym. Ops., with inversion, found


                                    s                        frac. trans.

      isym =  1     identity                                     

 cryst.   s( 1) = (     1          0          0      )
                  (     0          1          0      )
                  (     0          0          1      )

 cart.    s( 1) = (  1.0000000  0.0000000  0.0000000 )
                  (  0.0000000  1.0000000  0.0000000 )
                  (  0.0000000  0.0000000  1.0000000 )


      isym =  2     180 deg rotation - cart. axis [0,0,1]        

 cryst.   s( 2) = (     0          0          1      )
                  (     1         -1          1      )
                  (     1          0          0      )

 cart.    s( 2) = ( -1.0000000  0.0000000  0.0000000 )
                  (  0.0000000 -1.0000000  0.0000000 )
                  (  0.0000000  0.0000000  1.0000000 )


      isym =  3     180 deg rotation - cart. axis [0,1,0]        

 cryst.   s( 3) = (    -1          1         -1      )
                  (     0          0         -1      )
                  (     0         -1          0      )

 cart.    s( 3) = ( -1.0000000  0.0000000  0.0000000 )
                  (  0.0000000  1.0000000  0.0000000 )
                  (  0.0000000  0.0000000 -1.0000000 )


      isym =  4     180 deg rotation - cart. axis [1,0,0]        

 cryst.   s( 4) = (     0         -1          0      )
                  (    -1          0          0      )
                  (    -1          1         -1      )

 cart.    s( 4) = (  1.0000000  0.0000000  0.0000000 )
                  (  0.0000000 -1.0000000  0.0000000 )
                  (  0.0000000  0.0000000 -1.0000000 )


      isym =  5     180 deg rotation - cart. axis [1,1,0]        

 cryst.   s( 5) = (     0          0         -1      )
                  (     0         -1          0      )
                  (    -1          0          0      )

 cart.    s( 5) = (  0.0000000  1.0000000  0.0000000 )
                  (  1.0000000  0.0000000  0.0000000 )
                  (  0.0000000  0.0000000 -1.0000000 )


      isym =  6     180 deg rotation - cart. axis [1,-1,0]       

 cryst.   s( 6) = (    -1          0          0      )
                  (    -1          1         -1      )
                  (     0          0         -1      )

 cart.    s( 6) = (  0.0000000 -1.0000000  0.0000000 )
                  ( -1.0000000  0.0000000  0.0000000 )
                  (  0.0000000  0.0000000 -1.0000000 )


      isym =  7      90 deg rotation - cart. axis [0,0,-1]       

 cryst.   s( 7) = (     1         -1          1      )
                  (     1          0          0      )
                  (     0          1          0      )

 cart.    s( 7) = (  0.0000000  1.0000000  0.0000000 )
                  ( -1.0000000  0.0000000  0.0000000 )
                  (  0.0000000  0.0000000  1.0000000 )


      isym =  8      90 deg rotation - cart. axis [0,0,1]        

 cryst.   s( 8) = (     0          1          0      )
                  (     0          0          1      )
                  (     1         -1          1      )

 cart.    s( 8) = (  0.0000000 -1.0000000  0.0000000 )
                  (  1.0000000  0.0000000  0.0000000 )
                  (  0.0000000  0.0000000  1.0000000 )


      isym =  9     180 deg rotation - cart. axis [1,0,1]        

 cryst.   s( 9) = (     1         -1          1      )
                  (     0         -1          0      )
                  (     0          0         -1      )

 cart.    s( 9) = (  0.0000000  0.0000000  1.0000000 )
                  (  0.0000000 -1.0000000  0.0000000 )
                  (  1.0000000  0.0000000  0.0000000 )


      isym = 10     180 deg rotation - cart. axis [-1,0,1]       

 cryst.   s(10) = (    -1          0          0      )
                  (     0          0          1      )
                  (     0          1          0      )

 cart.    s(10) = (  0.0000000  0.0000000 -1.0000000 )
                  (  0.0000000 -1.0000000  0.0000000 )
                  ( -1.0000000  0.0000000  0.0000000 )


      isym = 11      90 deg rotation - cart. axis [0,1,0]        

 cryst.   s(11) = (     0          0         -1      )
                  (     1          0          0      )
                  (     1         -1          1      )

 cart.    s(11) = (  0.0000000  0.0000000  1.0000000 )
                  (  0.0000000  1.0000000  0.0000000 )
                  ( -1.0000000  0.0000000  0.0000000 )


      isym = 12      90 deg rotation - cart. axis [0,-1,0]       

 cryst.   s(12) = (     0          1          0      )
                  (    -1          1         -1      )
                  (    -1          0          0      )

 cart.    s(12) = (  0.0000000  0.0000000 -1.0000000 )
                  (  0.0000000  1.0000000  0.0000000 )
                  (  1.0000000  0.0000000  0.0000000 )


      isym = 13     180 deg rotation - cart. axis [0,1,1]        

 cryst.   s(13) = (     0          1          0      )
                  (     1          0          0      )
                  (     0          0         -1      )

 cart.    s(13) = ( -1.0000000  0.0000000  0.0000000 )
                  (  0.0000000  0.0000000  1.0000000 )
                  (  0.0000000  1.0000000  0.0000000 )


      isym = 14     180 deg rotation - cart. axis [0,1,-1]       

 cryst.   s(14) = (    -1          0          0      )
                  (     0         -1          0      )
                  (     1         -1          1      )

 cart.    s(14) = ( -1.0000000  0.0000000  0.0000000 )
                  (  0.0000000  0.0000000 -1.0000000 )
                  (  0.0000000 -1.0000000  0.0000000 )


      isym = 15      90 deg rotation - cart. axis [-1,0,0]       

 cryst.   s(15) = (     0          0         -1      )
                  (    -1          1         -1      )
                  (     0          1          0      )

 cart.    s(15) = (  1.0000000  0.0000000  0.0000000 )
                  (  0.0000000  0.0000000  1.0000000 )
                  (  0.0000000 -1.0000000  0.0000000 )


      isym = 16      90 deg rotation - cart. axis [1,0,0]        

 cryst.   s(16) = (     1         -1          1      )
                  (     0          0          1      )
                  (    -1          0          0      )

 cart.    s(16) = (  1.0000000  0.0000000  0.0000000 )
                  (  0.0000000  0.0000000 -1.0000000 )
                  (  0.0000000  1.0000000  0.0000000 )


      isym = 17     120 deg rotation - cart. axis [-1,-1,-1]     

 cryst.   s(17) = (     1          0          0      )
                  (     0          0         -1      )
                  (    -1          1         -1      )

 cart.    s(17) = (  0.0000000  1.0000000  0.0000000 )
                  (  0.0000000  0.0000000  1.0000000 )
                  (  1.0000000  0.0000000  0.0000000 )


      isym = 18     120 deg rotation - cart. axis [-1,1,1]       

 cryst.   s(18) = (    -1          1         -1      )
                  (     0          1          0      )
                  (     1          0          0      )

 cart.    s(18) = (  0.0000000 -1.0000000  0.0000000 )
                  (  0.0000000  0.0000000  1.0000000 )
                  ( -1.0000000  0.0000000  0.0000000 )


      isym = 19     120 deg rotation - cart. axis [1,1,-1]       

 cryst.   s(19) = (     0         -1          0      )
                  (     1         -1          1      )
                  (     0          0          1      )

 cart.    s(19) = (  0.0000000  1.0000000  0.0000000 )
                  (  0.0000000  0.0000000 -1.0000000 )
                  ( -1.0000000  0.0000000  0.0000000 )


      isym = 20     120 deg rotation - cart. axis [1,-1,1]       

 cryst.   s(20) = (     0          0          1      )
                  (    -1          0          0      )
                  (     0         -1          0      )

 cart.    s(20) = (  0.0000000 -1.0000000  0.0000000 )
                  (  0.0000000  0.0000000 -1.0000000 )
                  (  1.0000000  0.0000000  0.0000000 )


      isym = 21     120 deg rotation - cart. axis [1,1,1]        

 cryst.   s(21) = (     1          0          0      )
                  (     1         -1          1      )
                  (     0         -1          0      )

 cart.    s(21) = (  0.0000000  0.0000000  1.0000000 )
                  (  1.0000000  0.0000000  0.0000000 )
                  (  0.0000000  1.0000000  0.0000000 )


      isym = 22     120 deg rotation - cart. axis [-1,1,-1]      

 cryst.   s(22) = (     0         -1          0      )
                  (     0          0         -1      )
                  (     1          0          0      )

 cart.    s(22) = (  0.0000000  0.0000000  1.0000000 )
                  ( -1.0000000  0.0000000  0.0000000 )
                  (  0.0000000 -1.0000000  0.0000000 )


      isym = 23     120 deg rotation - cart. axis [1,-1,-1]      

 cryst.   s(23) = (     0          0          1      )
                  (     0          1          0      )
                  (    -1          1         -1      )

 cart.    s(23) = (  0.0000000  0.0000000 -1.0000000 )
                  ( -1.0000000  0.0000000  0.0000000 )
                  (  0.0000000  1.0000000  0.0000000 )


      isym = 24     120 deg rotation - cart. axis [-1,-1,1]      

 cryst.   s(24) = (    -1          1         -1      )
                  (    -1          0          0      )
                  (     0          0          1      )

 cart.    s(24) = (  0.0000000  0.0000000 -1.0000000 )
                  (  1.0000000  0.0000000  0.0000000 )
                  (  0.0000000 -1.0000000  0.0000000 )


      isym = 25     inversion                                    

 cryst.   s(25) = (    -1          0          0      )
                  (     0         -1          0      )
                  (     0          0         -1      )

 cart.    s(25) = ( -1.0000000  0.0000000  0.0000000 )
                  (  0.0000000 -1.0000000  0.0000000 )
                  (  0.0000000  0.0000000 -1.0000000 )


      isym = 26     inv. 180 deg rotation - cart. axis [0,0,1]   

 cryst.   s(26) = (     0          0         -1      )
                  (    -1          1         -1      )
                  (    -1          0          0      )

 cart.    s(26) = (  1.0000000  0.0000000  0.0000000 )
                  (  0.0000000  1.0000000  0.0000000 )
                  (  0.0000000  0.0000000 -1.0000000 )


      isym = 27     inv. 180 deg rotation - cart. axis [0,1,0]   

 cryst.   s(27) = (     1         -1          1      )
                  (     0          0          1      )
                  (     0          1          0      )

 cart.    s(27) = (  1.0000000  0.0000000  0.0000000 )
                  (  0.0000000 -1.0000000  0.0000000 )
                  (  0.0000000  0.0000000  1.0000000 )


      isym = 28     inv. 180 deg rotation - cart. axis [1,0,0]   

 cryst.   s(28) = (     0          1          0      )
                  (     1          0          0      )
                  (     1         -1          1      )

 cart.    s(28) = ( -1.0000000  0.0000000  0.0000000 )
                  (  0.0000000  1.0000000  0.0000000 )
                  (  0.0000000  0.0000000  1.0000000 )


      isym = 29     inv. 180 deg rotation - cart. axis [1,1,0]   

 cryst.   s(29) = (     0          0          1      )
                  (     0          1          0      )
                  (     1          0          0      )

 cart.    s(29) = (  0.0000000 -1.0000000  0.0000000 )
                  ( -1.0000000  0.0000000  0.0000000 )
                  (  0.0000000  0.0000000  1.0000000 )


      isym = 30     inv. 180 deg rotation - cart. axis [1,-1,0]  

 cryst.   s(30) = (     1          0          0      )
                  (     1         -1          1      )
                  (     0          0          1      )

 cart.    s(30) = (  0.0000000  1.0000000  0.0000000 )
                  (  1.0000000  0.0000000  0.0000000 )
                  (  0.0000000  0.0000000  1.0000000 )


      isym = 31     inv.  90 deg rotation - cart. axis [0,0,-1]  

 cryst.   s(31) = (    -1          1         -1      )
                  (    -1          0          0      )
                  (     0         -1          0      )

 cart.    s(31) = (  0.0000000 -1.0000000  0.0000000 )
                  (  1.0000000  0.0000000  0.0000000 )
                  (  0.0000000  0.0000000 -1.0000000 )


      isym = 32     inv.  90 deg rotation - cart. axis [0,0,1]   

 cryst.   s(32) = (     0         -1          0      )
                  (     0          0         -1      )
                  (    -1          1         -1      )

 cart.    s(32) = (  0.0000000  1.0000000  0.0000000 )
                  ( -1.0000000  0.0000000  0.0000000 )
                  (  0.0000000  0.0000000 -1.0000000 )


      isym = 33     inv. 180 deg rotation - cart. axis [1,0,1]   

 cryst.   s(33) = (    -1          1         -1      )
                  (     0          1          0      )
                  (     0          0          1      )

 cart.    s(33) = (  0.0000000  0.0000000 -1.0000000 )
                  (  0.0000000  1.0000000  0.0000000 )
                  ( -1.0000000  0.0000000  0.0000000 )


      isym = 34     inv. 180 deg rotation - cart. axis [-1,0,1]  

 cryst.   s(34) = (     1          0          0      )
                  (     0          0         -1      )
                  (     0         -1          0      )

 cart.    s(34) = (  0.0000000  0.0000000  1.0000000 )
                  (  0.0000000  1.0000000  0.0000000 )
                  (  1.0000000  0.0000000  0.0000000 )


      isym = 35     inv.  90 deg rotation - cart. axis [0,1,0]   

 cryst.   s(35) = (     0          0          1      )
                  (    -1          0          0      )
                  (    -1          1         -1      )

 cart.    s(35) = (  0.0000000  0.0000000 -1.0000000 )
                  (  0.0000000 -1.0000000  0.0000000 )
                  (  1.0000000  0.0000000  0.0000000 )


      isym = 36     inv.  90 deg rotation - cart. axis [0,-1,0]  

 cryst.   s(36) = (     0         -1          0      )
                  (     1         -1          1      )
                  (     1          0          0      )

 cart.    s(36) = (  0.0000000  0.0000000  1.0000000 )
                  (  0.0000000 -1.0000000  0.0000000 )
                  ( -1.0000000  0.0000000  0.0000000 )


      isym = 37     inv. 180 deg rotation - cart. axis [0,1,1]   

 cryst.   s(37) = (     0         -1          0      )
                  (    -1          0          0      )
                  (     0          0          1      )

 cart.    s(37) = (  1.0000000  0.0000000  0.0000000 )
                  (  0.0000000  0.0000000 -1.0000000 )
                  (  0.0000000 -1.0000000  0.0000000 )


      isym = 38     inv. 180 deg rotation - cart. axis [0,1,-1]  

 cryst.   s(38) = (     1          0          0      )
                  (     0          1          0      )
                  (    -1          1         -1      )

 cart.    s(38) = (  1.0000000  0.0000000  0.0000000 )
                  (  0.0000000  0.0000000  1.0000000 )
                  (  0.0000000  1.0000000  0.0000000 )


      isym = 39     inv.  90 deg rotation - cart. axis [-1,0,0]  

 cryst.   s(39) = (     0          0          1      )
                  (     1         -1          1      )
                  (     0         -1          0      )

 cart.    s(39) = ( -1.0000000  0.0000000  0.0000000 )
                  (  0.0000000  0.0000000 -1.0000000 )
                  (  0.0000000  1.0000000  0.0000000 )


      isym = 40     inv.  90 deg rotation - cart. axis [1,0,0]   

 cryst.   s(40) = (    -1          1         -1      )
                  (     0          0         -1      )
                  (     1          0          0      )

 cart.    s(40) = ( -1.0000000  0.0000000  0.0000000 )
                  (  0.0000000  0.0000000  1.0000000 )
                  (  0.0000000 -1.0000000  0.0000000 )


      isym = 41     inv. 120 deg rotation - cart. axis [-1,-1,-1]

 cryst.   s(41) = (    -1          0          0      )
                  (     0          0          1      )
                  (     1         -1          1      )

 cart.    s(41) = (  0.0000000 -1.0000000  0.0000000 )
                  (  0.0000000  0.0000000 -1.0000000 )
                  ( -1.0000000  0.0000000  0.0000000 )


      isym = 42     inv. 120 deg rotation - cart. axis [-1,1,1]  

 cryst.   s(42) = (     1         -1          1      )
                  (     0         -1          0      )
                  (    -1          0          0      )

 cart.    s(42) = (  0.0000000  1.0000000  0.0000000 )
                  (  0.0000000  0.0000000 -1.0000000 )
                  (  1.0000000  0.0000000  0.0000000 )


      isym = 43     inv. 120 deg rotation - cart. axis [1,1,-1]  

 cryst.   s(43) = (     0          1          0      )
                  (    -1          1         -1      )
                  (     0          0         -1      )

 cart.    s(43) = (  0.0000000 -1.0000000  0.0000000 )
                  (  0.0000000  0.0000000  1.0000000 )
                  (  1.0000000  0.0000000  0.0000000 )


      isym = 44     inv. 120 deg rotation - cart. axis [1,-1,1]  

 cryst.   s(44) = (     0          0         -1      )
                  (     1          0          0      )
                  (     0          1          0      )

 cart.    s(44) = (  0.0000000  1.0000000  0.0000000 )
                  (  0.0000000  0.0000000  1.0000000 )
                  ( -1.0000000  0.0000000  0.0000000 )


      isym = 45     inv. 120 deg rotation - cart. axis [1,1,1]   

 cryst.   s(45) = (    -1          0          0      )
                  (    -1          1         -1      )
                  (     0          1          0      )

 cart.    s(45) = (  0.0000000  0.0000000 -1.0000000 )
                  ( -1.0000000  0.0000000  0.0000000 )
                  (  0.0000000 -1.0000000  0.0000000 )


      isym = 46     inv. 120 deg rotation - cart. axis [-1,1,-1] 

 cryst.   s(46) = (     0          1          0      )
                  (     0          0          1      )
                  (    -1          0          0      )

 cart.    s(46) = (  0.0000000  0.0000000 -1.0000000 )
                  (  1.0000000  0.0000000  0.0000000 )
                  (  0.0000000  1.0000000  0.0000000 )


      isym = 47     inv. 120 deg rotation - cart. axis [1,-1,-1] 

 cryst.   s(47) = (     0          0         -1      )
                  (     0         -1          0      )
                  (     1         -1          1      )

 cart.    s(47) = (  0.0000000  0.0000000  1.0000000 )
                  (  1.0000000  0.0000000  0.0000000 )
                  (  0.0000000 -1.0000000  0.0000000 )


      isym = 48     inv. 120 deg rotation - cart. axis [-1,-1,1] 

 cryst.   s(48) = (     1         -1          1      )
                  (     1          0          0      )
                  (     0          0         -1      )

 cart.    s(48) = (  0.0000000  0.0000000  1.0000000 )
                  ( -1.0000000  0.0000000  0.0000000 )
                  (  0.0000000  1.0000000  0.0000000 )


     point group O_h (m-3m) 
     there are 10 classes
     the character table:

       E     8C3   3C2   6C4   6C2'  i     8S6   3s_h  6S4   6s_d 
A_1g   1.00  1.00  1.00  1.00  1.00  1.00  1.00  1.00  1.00  1.00
A_2g   1.00  1.00  1.00 -1.00 -1.00  1.00  1.00  1.00 -1.00 -1.00
E_g    2.00 -1.00  2.00  0.00  0.00  2.00 -1.00  2.00  0.00  0.00
T_1g   3.00  0.00 -1.00  1.00 -1.00  3.00  0.00 -1.00  1.00 -1.00
T_2g   3.00  0.00 -1.00 -1.00  1.00  3.00  0.00 -1.00 -1.00  1.00
A_1u   1.00  1.00  1.00  1.00  1.00 -1.00 -1.00 -1.00 -1.00 -1.00
A_2u   1.00  1.00  1.00 -1.00 -1.00 -1.00 -1.00 -1.00  1.00  1.00
E_u    2.00 -1.00  2.00  0.00  0.00 -2.00  1.00 -2.00  0.00  0.00
T_1u   3.00  0.00 -1.00  1.00 -1.00 -3.00  0.00  1.00 -1.00  1.00
T_2u   3.00  0.00 -1.00 -1.00  1.00 -3.00  0.00  1.00  1.00 -1.00

     the symmetry operations in each class and the name of the first element:

     E        1
          identity                                               
     8C3     17   19   20   18   24   21   22   23
          120 deg rotation - cart. axis [-1,-1,-1]               
     3C2      2    4    3
          180 deg rotation - cart. axis [0,0,1]                  
     6C4      7    8   15   16   12   11
           90 deg rotation - cart. axis [0,0,-1]                 
     6C2'     5    6   14   13   10    9
          180 deg rotation - cart. axis [1,1,0]                  
     i       25
          inversion                                              
     8S6     41   43   44   42   48   45   46   47
          inv. 120 deg rotation - cart. axis [-1,-1,-1]          
     3s_h    26   28   27
          inv. 180 deg rotation - cart. axis [0,0,1]             
     6S4     31   32   39   40   36   35
          inv.  90 deg rotation - cart. axis [0,0,-1]            
     6s_d    29   30   38   37   34   33
          inv. 180 deg rotation - cart. axis [1,1,0]             

   Cartesian axes

     site n.     atom                  positions (alat units)
         1           Fe  tau(   1) = (   0.0000000   0.0000000   0.0000000  )

   Crystallographic axes

     site n.     atom                  positions (cryst. coord.)
         1           Fe  tau(   1) = (  0.0000000  0.0000000  0.0000000  )

     number of k points=   195  Marzari-Vanderbilt smearing, width (Ry)=  0.0100
                       cart. coord. in units 2pi/alat
        k(    1) = (   0.0000000   0.0000000   0.0000000), wk =   0.0001715
        k(    2) = (   0.0000000  -0.0555556   0.0555556), wk =   0.0020576
        k(    3) = (   0.0000000  -0.1111111   0.1111111), wk =   0.0020576
        k(    4) = (   0.0000000  -0.1666667   0.1666667), wk =   0.0020576
        k(    5) = (   0.0000000  -0.2222222   0.2222222), wk =   0.0020576
        k(    6) = (   0.0000000  -0.2777778   0.2777778), wk =   0.0020576
        k(    7) = (   0.0000000  -0.3333333   0.3333333), wk =   0.0020576
        k(    8) = (   0.0000000  -0.3888889   0.3888889), wk =   0.0020576
        k(    9) = (   0.0000000  -0.4444444   0.4444444), wk =   0.0020576
        k(   10) = (   0.0000000   0.5000000  -0.5000000), wk =   0.0010288
        k(   11) = (  -0.0555556  -0.0555556   0.1111111), wk =   0.0041152
        k(   12) = (  -0.0555556  -0.1111111   0.1666667), wk =   0.0082305
        k(   13) = (  -0.0555556  -0.1666667   0.2222222), wk =   0.0082305
        k(   14) = (  -0.0555556  -0.2222222   0.2777778), wk =   0.0082305
        k(   15) = (  -0.0555556  -0.2777778   0.3333333), wk =   0.0082305
        k(   16) = (  -0.0555556  -0.3333333   0.3888889), wk =   0.0082305
        k(   17) = (  -0.0555556  -0.3888889   0.4444444), wk =   0.0082305
        k(   18) = (  -0.0555556   0.5555556  -0.5000000), wk =   0.0082305
        k(   19) = (  -0.1111111  -0.1111111   0.2222222), wk =   0.0041152
        k(   20) = (  -0.1111111  -0.1666667   0.2777778), wk =   0.0082305
        k(   21) = (  -0.1111111  -0.2222222   0.3333333), wk =   0.0082305
        k(   22) = (  -0.1111111  -0.2777778   0.3888889), wk =   0.0082305
        k(   23) = (  -0.1111111  -0.3333333   0.4444444), wk =   0.0082305
        k(   24) = (  -0.1111111   0.6111111  -0.5000000), wk =   0.0082305
        k(   25) = (  -0.1111111   0.5555556  -0.4444444), wk =   0.0041152
        k(   26) = (  -0.1666667  -0.1666667   0.3333333), wk =   0.0041152
        k(   27) = (  -0.1666667  -0.2222222   0.3888889), wk =   0.0082305
        k(   28) = (  -0.1666667  -0.2777778   0.4444444), wk =   0.0082305
        k(   29) = (  -0.1666667   0.6666667  -0.5000000), wk =   0.0082305
        k(   30) = (  -0.1666667   0.6111111  -0.4444444), wk =   0.0082305
        k(   31) = (  -0.2222222  -0.2222222   0.4444444), wk =   0.0041152
        k(   32) = (  -0.2222222   0.7222222  -0.5000000), wk =   0.0082305
        k(   33) = (  -0.2222222   0.6666667  -0.4444444), wk =   0.0082305
        k(   34) = (  -0.2222222   0.6111111  -0.3888889), wk =   0.0041152
        k(   35) = (  -0.2777778   0.7222222  -0.4444444), wk =   0.0041152
        k(   36) = (  -0.2777778   0.6666667  -0.3888889), wk =   0.0082305
        k(   37) = (  -0.3333333   0.6666667  -0.3333333), wk =   0.0013717
        k(   38) = (   0.0000000   0.0000000   0.1111111), wk =   0.0010288
        k(   39) = (   0.0000000  -0.0555556   0.1666667), wk =   0.0041152
        k(   40) = (   0.0000000  -0.1111111   0.2222222), wk =   0.0041152
        k(   41) = (   0.0000000  -0.1666667   0.2777778), wk =   0.0041152
        k(   42) = (   0.0000000  -0.2222222   0.3333333), wk =   0.0041152
        k(   43) = (   0.0000000  -0.2777778   0.3888889), wk =   0.0041152
        k(   44) = (   0.0000000  -0.3333333   0.4444444), wk =   0.0041152
        k(   45) = (   0.0000000  -0.3888889   0.5000000), wk =   0.0041152
        k(   46) = (   0.0000000   0.5555556  -0.4444444), wk =   0.0020576
        k(   47) = (  -0.0555556  -0.0555556   0.2222222), wk =   0.0041152
        k(   48) = (  -0.0555556  -0.1111111   0.2777778), wk =   0.0082305
        k(   49) = (  -0.0555556  -0.1666667   0.3333333), wk =   0.0082305
        k(   50) = (  -0.0555556  -0.2222222   0.3888889), wk =   0.0082305
        k(   51) = (  -0.0555556  -0.2777778   0.4444444), wk =   0.0082305
        k(   52) = (  -0.0555556  -0.3333333   0.5000000), wk =   0.0082305
        k(   53) = (  -0.0555556   0.6111111  -0.4444444), wk =   0.0082305
        k(   54) = (  -0.1111111   0.1111111   0.1111111), wk =   0.0013717
        k(   55) = (  -0.1111111  -0.1111111   0.3333333), wk =   0.0041152
        k(   56) = (  -0.1111111  -0.1666667   0.3888889), wk =   0.0082305
        k(   57) = (  -0.1111111  -0.2222222   0.4444444), wk =   0.0082305
        k(   58) = (  -0.1111111  -0.2777778   0.5000000), wk =   0.0082305
        k(   59) = (  -0.1111111   0.6666667  -0.4444444), wk =   0.0082305
        k(   60) = (  -0.1111111   0.6111111  -0.3888889), wk =   0.0041152
        k(   61) = (  -0.1666667   0.1666667   0.1111111), wk =   0.0041152
        k(   62) = (  -0.1666667  -0.1666667   0.4444444), wk =   0.0041152
        k(   63) = (  -0.1666667  -0.2222222   0.5000000), wk =   0.0082305
        k(   64) = (  -0.1666667   0.7222222  -0.4444444), wk =   0.0082305
        k(   65) = (  -0.1666667   0.6666667  -0.3888889), wk =   0.0082305
        k(   66) = (  -0.2222222   0.2222222   0.1111111), wk =   0.0041152
        k(   67) = (  -0.2222222   0.1666667   0.1666667), wk =   0.0041152
        k(   68) = (  -0.2222222   0.7777778  -0.4444444), wk =   0.0041152
        k(   69) = (  -0.2222222   0.7222222  -0.3888889), wk =   0.0082305
        k(   70) = (  -0.2222222   0.6666667  -0.3333333), wk =   0.0041152
        k(   71) = (  -0.2777778   0.2777778   0.1111111), wk =   0.0041152
        k(   72) = (  -0.2777778   0.2222222   0.1666667), wk =   0.0082305
        k(   73) = (  -0.2777778   0.7222222  -0.3333333), wk =   0.0041152
        k(   74) = (  -0.3333333   0.3333333   0.1111111), wk =   0.0041152
        k(   75) = (  -0.3333333   0.2777778   0.1666667), wk =   0.0082305
        k(   76) = (  -0.3333333   0.2222222   0.2222222), wk =   0.0041152
        k(   77) = (  -0.3888889   0.3888889   0.1111111), wk =   0.0041152
        k(   78) = (  -0.3888889   0.3333333   0.1666667), wk =   0.0082305
        k(   79) = (  -0.3888889   0.2777778   0.2222222), wk =   0.0082305
        k(   80) = (   0.5555556  -0.5555556   0.1111111), wk =   0.0041152
        k(   81) = (   0.5555556  -0.6111111   0.1666667), wk =   0.0082305
        k(   82) = (   0.5555556  -0.6666667   0.2222222), wk =   0.0082305
        k(   83) = (   0.5555556  -0.7222222   0.2777778), wk =   0.0041152
        k(   84) = (   0.5000000  -0.5000000   0.1111111), wk =   0.0020576
        k(   85) = (   0.5000000  -0.5555556   0.1666667), wk =   0.0082305
        k(   86) = (   0.5000000  -0.6111111   0.2222222), wk =   0.0082305
        k(   87) = (   0.5000000  -0.6666667   0.2777778), wk =   0.0082305
        k(   88) = (   0.4444444  -0.5555556   0.2222222), wk =   0.0041152
        k(   89) = (   0.4444444  -0.6111111   0.2777778), wk =   0.0082305
        k(   90) = (   0.4444444  -0.6666667   0.3333333), wk =   0.0041152
        k(   91) = (   0.3888889  -0.6111111   0.3333333), wk =   0.0041152
        k(   92) = (   0.0000000   0.0000000   0.2222222), wk =   0.0010288
        k(   93) = (   0.0000000  -0.0555556   0.2777778), wk =   0.0041152
        k(   94) = (   0.0000000  -0.1111111   0.3333333), wk =   0.0041152
        k(   95) = (   0.0000000  -0.1666667   0.3888889), wk =   0.0041152
        k(   96) = (   0.0000000  -0.2222222   0.4444444), wk =   0.0041152
        k(   97) = (   0.0000000  -0.2777778   0.5000000), wk =   0.0041152
        k(   98) = (   0.0000000  -0.3333333   0.5555556), wk =   0.0041152
        k(   99) = (   0.0000000   0.6111111  -0.3888889), wk =   0.0020576
        k(  100) = (  -0.0555556  -0.0555556   0.3333333), wk =   0.0041152
        k(  101) = (  -0.0555556  -0.1111111   0.3888889), wk =   0.0082305
        k(  102) = (  -0.0555556  -0.1666667   0.4444444), wk =   0.0082305
        k(  103) = (  -0.0555556  -0.2222222   0.5000000), wk =   0.0082305
        k(  104) = (  -0.0555556  -0.2777778   0.5555556), wk =   0.0082305
        k(  105) = (  -0.0555556   0.6666667  -0.3888889), wk =   0.0082305
        k(  106) = (  -0.1111111  -0.1111111   0.4444444), wk =   0.0041152
        k(  107) = (  -0.1111111  -0.1666667   0.5000000), wk =   0.0082305
        k(  108) = (  -0.1111111  -0.2222222   0.5555556), wk =   0.0082305
        k(  109) = (  -0.1111111   0.7222222  -0.3888889), wk =   0.0082305
        k(  110) = (  -0.1111111   0.6666667  -0.3333333), wk =   0.0041152
        k(  111) = (  -0.1666667  -0.1666667   0.5555556), wk =   0.0041152
        k(  112) = (  -0.1666667   0.7777778  -0.3888889), wk =   0.0082305
        k(  113) = (  -0.1666667   0.7222222  -0.3333333), wk =   0.0082305
        k(  114) = (  -0.2222222   0.2222222   0.2222222), wk =   0.0013717
        k(  115) = (  -0.2222222   0.7777778  -0.3333333), wk =   0.0041152
        k(  116) = (  -0.2222222   0.7222222  -0.2777778), wk =   0.0041152
        k(  117) = (  -0.2777778   0.2777778   0.2222222), wk =   0.0041152
        k(  118) = (  -0.3333333   0.3333333   0.2222222), wk =   0.0041152
        k(  119) = (  -0.3333333   0.2777778   0.2777778), wk =   0.0041152
        k(  120) = (   0.6111111  -0.6111111   0.2222222), wk =   0.0041152
        k(  121) = (   0.6111111  -0.6666667   0.2777778), wk =   0.0082305
        k(  122) = (   0.5555556  -0.5555556   0.2222222), wk =   0.0041152
        k(  123) = (   0.5555556  -0.6111111   0.2777778), wk =   0.0082305
        k(  124) = (   0.5555556  -0.6666667   0.3333333), wk =   0.0041152
        k(  125) = (   0.5000000  -0.5000000   0.2222222), wk =   0.0020576
        k(  126) = (   0.5000000  -0.5555556   0.2777778), wk =   0.0082305
        k(  127) = (   0.5000000  -0.6111111   0.3333333), wk =   0.0082305
        k(  128) = (   0.4444444  -0.5555556   0.3333333), wk =   0.0041152
        k(  129) = (   0.4444444  -0.6111111   0.3888889), wk =   0.0041152
        k(  130) = (   0.0000000   0.0000000   0.3333333), wk =   0.0010288
        k(  131) = (   0.0000000  -0.0555556   0.3888889), wk =   0.0041152
        k(  132) = (   0.0000000  -0.1111111   0.4444444), wk =   0.0041152
        k(  133) = (   0.0000000  -0.1666667   0.5000000), wk =   0.0041152
        k(  134) = (   0.0000000  -0.2222222   0.5555556), wk =   0.0041152
        k(  135) = (   0.0000000  -0.2777778   0.6111111), wk =   0.0041152
        k(  136) = (   0.0000000   0.6666667  -0.3333333), wk =   0.0020576
        k(  137) = (  -0.0555556  -0.0555556   0.4444444), wk =   0.0041152
        k(  138) = (  -0.0555556  -0.1111111   0.5000000), wk =   0.0082305
        k(  139) = (  -0.0555556  -0.1666667   0.5555556), wk =   0.0082305
        k(  140) = (  -0.0555556  -0.2222222   0.6111111), wk =   0.0082305
        k(  141) = (  -0.0555556   0.7222222  -0.3333333), wk =   0.0082305
        k(  142) = (  -0.1111111  -0.1111111   0.5555556), wk =   0.0041152
        k(  143) = (  -0.1111111  -0.1666667   0.6111111), wk =   0.0082305
        k(  144) = (  -0.1111111   0.7777778  -0.3333333), wk =   0.0082305
        k(  145) = (  -0.1111111   0.7222222  -0.2777778), wk =   0.0041152
        k(  146) = (  -0.1666667   0.8333333  -0.3333333), wk =   0.0041152
        k(  147) = (  -0.1666667   0.7777778  -0.2777778), wk =   0.0082305
        k(  148) = (  -0.2222222   0.7777778  -0.2222222), wk =   0.0013717
        k(  149) = (   0.6666667  -0.6666667   0.3333333), wk =   0.0013717
        k(  150) = (   0.6111111  -0.6111111   0.3333333), wk =   0.0041152
        k(  151) = (   0.5555556  -0.5555556   0.3333333), wk =   0.0041152
        k(  152) = (   0.5555556  -0.6111111   0.3888889), wk =   0.0041152
        k(  153) = (   0.5000000  -0.5000000   0.3333333), wk =   0.0020576
        k(  154) = (   0.5000000  -0.5555556   0.3888889), wk =   0.0082305
        k(  155) = (   0.4444444  -0.5555556   0.4444444), wk =   0.0013717
        k(  156) = (   0.0000000   0.0000000   0.4444444), wk =   0.0010288
        k(  157) = (   0.0000000  -0.0555556   0.5000000), wk =   0.0041152
        k(  158) = (   0.0000000  -0.1111111   0.5555556), wk =   0.0041152
        k(  159) = (   0.0000000  -0.1666667   0.6111111), wk =   0.0041152
        k(  160) = (   0.0000000  -0.2222222   0.6666667), wk =   0.0041152
        k(  161) = (   0.0000000   0.7222222  -0.2777778), wk =   0.0020576
        k(  162) = (  -0.0555556  -0.0555556   0.5555556), wk =   0.0041152
        k(  163) = (  -0.0555556  -0.1111111   0.6111111), wk =   0.0082305
        k(  164) = (  -0.0555556  -0.1666667   0.6666667), wk =   0.0082305
        k(  165) = (  -0.0555556   0.7777778  -0.2777778), wk =   0.0082305
        k(  166) = (  -0.1111111  -0.1111111   0.6666667), wk =   0.0041152
        k(  167) = (  -0.1111111   0.8333333  -0.2777778), wk =   0.0082305
        k(  168) = (  -0.1111111   0.7777778  -0.2222222), wk =   0.0041152
        k(  169) = (  -0.1666667   0.8333333  -0.2222222), wk =   0.0041152
        k(  170) = (   0.5555556  -0.5555556   0.4444444), wk =   0.0013717
        k(  171) = (   0.5000000  -0.5000000   0.4444444), wk =   0.0020576
        k(  172) = (   0.0000000   0.0000000   0.5555556), wk =   0.0010288
        k(  173) = (   0.0000000  -0.0555556   0.6111111), wk =   0.0041152
        k(  174) = (   0.0000000  -0.1111111   0.6666667), wk =   0.0041152
        k(  175) = (   0.0000000  -0.1666667   0.7222222), wk =   0.0041152
        k(  176) = (   0.0000000   0.7777778  -0.2222222), wk =   0.0020576
        k(  177) = (  -0.0555556  -0.0555556   0.6666667), wk =   0.0041152
        k(  178) = (  -0.0555556  -0.1111111   0.7222222), wk =   0.0082305
        k(  179) = (  -0.0555556   0.8333333  -0.2222222), wk =   0.0082305
        k(  180) = (  -0.1111111   0.8888889  -0.2222222), wk =   0.0041152
        k(  181) = (  -0.1111111   0.8333333  -0.1666667), wk =   0.0041152
        k(  182) = (   0.0000000   0.0000000   0.6666667), wk =   0.0010288
        k(  183) = (   0.0000000  -0.0555556   0.7222222), wk =   0.0041152
        k(  184) = (   0.0000000  -0.1111111   0.7777778), wk =   0.0041152
        k(  185) = (   0.0000000   0.8333333  -0.1666667), wk =   0.0020576
        k(  186) = (  -0.0555556  -0.0555556   0.7777778), wk =   0.0041152
        k(  187) = (  -0.0555556   0.8888889  -0.1666667), wk =   0.0082305
        k(  188) = (  -0.1111111   0.8888889  -0.1111111), wk =   0.0013717
        k(  189) = (   0.0000000   0.0000000   0.7777778), wk =   0.0010288
        k(  190) = (   0.0000000  -0.0555556   0.8333333), wk =   0.0041152
        k(  191) = (   0.0000000   0.8888889  -0.1111111), wk =   0.0020576
        k(  192) = (  -0.0555556   0.9444444  -0.1111111), wk =   0.0041152
        k(  193) = (   0.0000000   0.0000000   0.8888889), wk =   0.0010288
        k(  194) = (   0.0000000   0.9444444  -0.0555556), wk =   0.0020576
        k(  195) = (   0.0000000   0.0000000  -1.0000000), wk =   0.0001715

                       cryst. coord.
        k(    1) = (   0.0000000   0.0000000   0.0000000), wk =   0.0001715
        k(    2) = (   0.0000000   0.0000000   0.0555556), wk =   0.0020576
        k(    3) = (   0.0000000   0.0000000   0.1111111), wk =   0.0020576
        k(    4) = (   0.0000000   0.0000000   0.1666667), wk =   0.0020576
        k(    5) = (   0.0000000   0.0000000   0.2222222), wk =   0.0020576
        k(    6) = (   0.0000000   0.0000000   0.2777778), wk =   0.0020576
        k(    7) = (   0.0000000   0.0000000   0.3333333), wk =   0.0020576
        k(    8) = (   0.0000000   0.0000000   0.3888889), wk =   0.0020576
        k(    9) = (   0.0000000   0.0000000   0.4444444), wk =   0.0020576
        k(   10) = (   0.0000000   0.0000000  -0.5000000), wk =   0.0010288
        k(   11) = (   0.0000000   0.0555556   0.1111111), wk =   0.0041152
        k(   12) = (   0.0000000   0.0555556   0.1666667), wk =   0.0082305
        k(   13) = (   0.0000000   0.0555556   0.2222222), wk =   0.0082305
        k(   14) = (   0.0000000   0.0555556   0.2777778), wk =   0.0082305
        k(   15) = (  -0.0000000   0.0555556   0.3333333), wk =   0.0082305
        k(   16) = (  -0.0000000   0.0555556   0.3888889), wk =   0.0082305
        k(   17) = (   0.0000000   0.0555556   0.4444444), wk =   0.0082305
        k(   18) = (   0.0000000   0.0555556  -0.5000000), wk =   0.0082305
        k(   19) = (   0.0000000   0.1111111   0.2222222), wk =   0.0041152
        k(   20) = (   0.0000000   0.1111111   0.2777778), wk =   0.0082305
        k(   21) = (   0.0000000   0.1111111   0.3333333), wk =   0.0082305
        k(   22) = (   0.0000000   0.1111111   0.3888889), wk =   0.0082305
        k(   23) = (   0.0000000   0.1111111   0.4444444), wk =   0.0082305
        k(   24) = (   0.0000000   0.1111111  -0.5000000), wk =   0.0082305
        k(   25) = (   0.0000000   0.1111111  -0.4444444), wk =   0.0041152
        k(   26) = (   0.0000000   0.1666667   0.3333333), wk =   0.0041152
        k(   27) = (   0.0000000   0.1666667   0.3888889), wk =   0.0082305
        k(   28) = (   0.0000000   0.1666667   0.4444444), wk =   0.0082305
        k(   29) = (   0.0000000   0.1666667  -0.5000000), wk =   0.0082305
        k(   30) = (   0.0000000   0.1666667  -0.4444444), wk =   0.0082305
        k(   31) = (   0.0000000   0.2222222   0.4444444), wk =   0.0041152
        k(   32) = (   0.0000000   0.2222222  -0.5000000), wk =   0.0082305
        k(   33) = (   0.0000000   0.2222222  -0.4444444), wk =   0.0082305
        k(   34) = (   0.0000000   0.2222222  -0.3888889), wk =   0.0041152
        k(   35) = (   0.0000000   0.2777778  -0.4444444), wk =   0.0041152
        k(   36) = (   0.0000000   0.2777778  -0.3888889), wk =   0.0082305
        k(   37) = (   0.0000000   0.3333333  -0.3333333), wk =   0.0013717
        k(   38) = (   0.0555556   0.0555556   0.0555556), wk =   0.0010288
        k(   39) = (   0.0555556   0.0555556   0.1111111), wk =   0.0041152
        k(   40) = (   0.0555556   0.0555556   0.1666667), wk =   0.0041152
        k(   41) = (   0.0555556   0.0555556   0.2222222), wk =   0.0041152
        k(   42) = (   0.0555556   0.0555556   0.2777778), wk =   0.0041152
        k(   43) = (   0.0555556   0.0555556   0.3333333), wk =   0.0041152
        k(   44) = (   0.0555556   0.0555556   0.3888889), wk =   0.0041152
        k(   45) = (   0.0555556   0.0555556   0.4444444), wk =   0.0041152
        k(   46) = (   0.0555556   0.0555556  -0.5000000), wk =   0.0020576
        k(   47) = (   0.0555556   0.1111111   0.1666667), wk =   0.0041152
        k(   48) = (   0.0555556   0.1111111   0.2222222), wk =   0.0082305
        k(   49) = (   0.0555556   0.1111111   0.2777778), wk =   0.0082305
        k(   50) = (   0.0555556   0.1111111   0.3333333), wk =   0.0082305
        k(   51) = (   0.0555556   0.1111111   0.3888889), wk =   0.0082305
        k(   52) = (   0.0555556   0.1111111   0.4444444), wk =   0.0082305
        k(   53) = (   0.0555556   0.1111111  -0.5000000), wk =   0.0082305
        k(   54) = (   0.0555556   0.1666667   0.0555556), wk =   0.0013717
        k(   55) = (   0.0555556   0.1666667   0.2777778), wk =   0.0041152
        k(   56) = (   0.0555556   0.1666667   0.3333333), wk =   0.0082305
        k(   57) = (   0.0555556   0.1666667   0.3888889), wk =   0.0082305
        k(   58) = (   0.0555556   0.1666667   0.4444444), wk =   0.0082305
        k(   59) = (   0.0555556   0.1666667  -0.5000000), wk =   0.0082305
        k(   60) = (   0.0555556   0.1666667  -0.4444444), wk =   0.0041152
        k(   61) = (   0.0555556   0.2222222   0.0555556), wk =   0.0041152
        k(   62) = (   0.0555556   0.2222222   0.3888889), wk =   0.0041152
        k(   63) = (   0.0555556   0.2222222   0.4444444), wk =   0.0082305
        k(   64) = (   0.0555556   0.2222222  -0.5000000), wk =   0.0082305
        k(   65) = (   0.0555556   0.2222222  -0.4444444), wk =   0.0082305
        k(   66) = (   0.0555556   0.2777778   0.0555556), wk =   0.0041152
        k(   67) = (   0.0555556   0.2777778   0.1111111), wk =   0.0041152
        k(   68) = (   0.0555556   0.2777778  -0.5000000), wk =   0.0041152
        k(   69) = (   0.0555556   0.2777778  -0.4444444), wk =   0.0082305
        k(   70) = (   0.0555556   0.2777778  -0.3888889), wk =   0.0041152
        k(   71) = (   0.0555556   0.3333333   0.0555556), wk =   0.0041152
        k(   72) = (   0.0555556   0.3333333   0.1111111), wk =   0.0082305
        k(   73) = (   0.0555556   0.3333333  -0.3888889), wk =   0.0041152
        k(   74) = (   0.0555556   0.3888889   0.0555556), wk =   0.0041152
        k(   75) = (   0.0555556   0.3888889   0.1111111), wk =   0.0082305
        k(   76) = (   0.0555556   0.3888889   0.1666667), wk =   0.0041152
        k(   77) = (   0.0555556   0.4444444   0.0555556), wk =   0.0041152
        k(   78) = (   0.0555556   0.4444444   0.1111111), wk =   0.0082305
        k(   79) = (   0.0555556   0.4444444   0.1666667), wk =   0.0082305
        k(   80) = (   0.0555556  -0.5000000   0.0555556), wk =   0.0041152
        k(   81) = (   0.0555556  -0.5000000   0.1111111), wk =   0.0082305
        k(   82) = (   0.0555556  -0.5000000   0.1666667), wk =   0.0082305
        k(   83) = (   0.0555556  -0.5000000   0.2222222), wk =   0.0041152
        k(   84) = (   0.0555556  -0.4444444   0.0555556), wk =   0.0020576
        k(   85) = (   0.0555556  -0.4444444   0.1111111), wk =   0.0082305
        k(   86) = (   0.0555556  -0.4444444   0.1666667), wk =   0.0082305
        k(   87) = (   0.0555556  -0.4444444   0.2222222), wk =   0.0082305
        k(   88) = (   0.0555556  -0.3888889   0.1666667), wk =   0.0041152
        k(   89) = (   0.0555556  -0.3888889   0.2222222), wk =   0.0082305
        k(   90) = (   0.0555556  -0.3888889   0.2777778), wk =   0.0041152
        k(   91) = (   0.0555556  -0.3333333   0.2777778), wk =   0.0041152
        k(   92) = (   0.1111111   0.1111111   0.1111111), wk =   0.0010288
        k(   93) = (   0.1111111   0.1111111   0.1666667), wk =   0.0041152
        k(   94) = (   0.1111111   0.1111111   0.2222222), wk =   0.0041152
        k(   95) = (   0.1111111   0.1111111   0.2777778), wk =   0.0041152
        k(   96) = (   0.1111111   0.1111111   0.3333333), wk =   0.0041152
        k(   97) = (   0.1111111   0.1111111   0.3888889), wk =   0.0041152
        k(   98) = (   0.1111111   0.1111111   0.4444444), wk =   0.0041152
        k(   99) = (   0.1111111   0.1111111  -0.5000000), wk =   0.0020576
        k(  100) = (   0.1111111   0.1666667   0.2222222), wk =   0.0041152
        k(  101) = (   0.1111111   0.1666667   0.2777778), wk =   0.0082305
        k(  102) = (   0.1111111   0.1666667   0.3333333), wk =   0.0082305
        k(  103) = (   0.1111111   0.1666667   0.3888889), wk =   0.0082305
        k(  104) = (   0.1111111   0.1666667   0.4444444), wk =   0.0082305
        k(  105) = (   0.1111111   0.1666667  -0.5000000), wk =   0.0082305
        k(  106) = (   0.1111111   0.2222222   0.3333333), wk =   0.0041152
        k(  107) = (   0.1111111   0.2222222   0.3888889), wk =   0.0082305
        k(  108) = (   0.1111111   0.2222222   0.4444444), wk =   0.0082305
        k(  109) = (   0.1111111   0.2222222  -0.5000000), wk =   0.0082305
        k(  110) = (   0.1111111   0.2222222  -0.4444444), wk =   0.0041152
        k(  111) = (   0.1111111   0.2777778   0.4444444), wk =   0.0041152
        k(  112) = (   0.1111111   0.2777778  -0.5000000), wk =   0.0082305
        k(  113) = (   0.1111111   0.2777778  -0.4444444), wk =   0.0082305
        k(  114) = (   0.1111111   0.3333333   0.1111111), wk =   0.0013717
        k(  115) = (   0.1111111   0.3333333  -0.4444444), wk =   0.0041152
        k(  116) = (   0.1111111   0.3333333  -0.3888889), wk =   0.0041152
        k(  117) = (   0.1111111   0.3888889   0.1111111), wk =   0.0041152
        k(  118) = (   0.1111111   0.4444444   0.1111111), wk =   0.0041152
        k(  119) = (   0.1111111   0.4444444   0.1666667), wk =   0.0041152
        k(  120) = (   0.1111111  -0.5000000   0.1111111), wk =   0.0041152
        k(  121) = (   0.1111111  -0.5000000   0.1666667), wk =   0.0082305
        k(  122) = (   0.1111111  -0.4444444   0.1111111), wk =   0.0041152
        k(  123) = (   0.1111111  -0.4444444   0.1666667), wk =   0.0082305
        k(  124) = (   0.1111111  -0.4444444   0.2222222), wk =   0.0041152
        k(  125) = (   0.1111111  -0.3888889   0.1111111), wk =   0.0020576
        k(  126) = (   0.1111111  -0.3888889   0.1666667), wk =   0.0082305
        k(  127) = (   0.1111111  -0.3888889   0.2222222), wk =   0.0082305
        k(  128) = (   0.1111111  -0.3333333   0.2222222), wk =   0.0041152
        k(  129) = (   0.1111111  -0.3333333   0.2777778), wk =   0.0041152
        k(  130) = (   0.1666667   0.1666667   0.1666667), wk =   0.0010288
        k(  131) = (   0.1666667   0.1666667   0.2222222), wk =   0.0041152
        k(  132) = (   0.1666667   0.1666667   0.2777778), wk =   0.0041152
        k(  133) = (   0.1666667   0.1666667   0.3333333), wk =   0.0041152
        k(  134) = (   0.1666667   0.1666667   0.3888889), wk =   0.0041152
        k(  135) = (   0.1666667   0.1666667   0.4444444), wk =   0.0041152
        k(  136) = (   0.1666667   0.1666667  -0.5000000), wk =   0.0020576
        k(  137) = (   0.1666667   0.2222222   0.2777778), wk =   0.0041152
        k(  138) = (   0.1666667   0.2222222   0.3333333), wk =   0.0082305
        k(  139) = (   0.1666667   0.2222222   0.3888889), wk =   0.0082305
        k(  140) = (   0.1666667   0.2222222   0.4444444), wk =   0.0082305
        k(  141) = (   0.1666667   0.2222222  -0.5000000), wk =   0.0082305
        k(  142) = (   0.1666667   0.2777778   0.3888889), wk =   0.0041152
        k(  143) = (   0.1666667   0.2777778   0.4444444), wk =   0.0082305
        k(  144) = (   0.1666667   0.2777778  -0.5000000), wk =   0.0082305
        k(  145) = (   0.1666667   0.2777778  -0.4444444), wk =   0.0041152
        k(  146) = (   0.1666667   0.3333333  -0.5000000), wk =   0.0041152
        k(  147) = (   0.1666667   0.3333333  -0.4444444), wk =   0.0082305
        k(  148) = (   0.1666667   0.3888889  -0.3888889), wk =   0.0013717
        k(  149) = (   0.1666667  -0.5000000   0.1666667), wk =   0.0013717
        k(  150) = (   0.1666667  -0.4444444   0.1666667), wk =   0.0041152
        k(  151) = (   0.1666667  -0.3888889   0.1666667), wk =   0.0041152
        k(  152) = (   0.1666667  -0.3888889   0.2222222), wk =   0.0041152
        k(  153) = (   0.1666667  -0.3333333   0.1666667), wk =   0.0020576
        k(  154) = (   0.1666667  -0.3333333   0.2222222), wk =   0.0082305
        k(  155) = (   0.1666667  -0.2777778   0.2777778), wk =   0.0013717
        k(  156) = (   0.2222222   0.2222222   0.2222222), wk =   0.0010288
        k(  157) = (   0.2222222   0.2222222   0.2777778), wk =   0.0041152
        k(  158) = (   0.2222222   0.2222222   0.3333333), wk =   0.0041152
        k(  159) = (   0.2222222   0.2222222   0.3888889), wk =   0.0041152
        k(  160) = (   0.2222222   0.2222222   0.4444444), wk =   0.0041152
        k(  161) = (   0.2222222   0.2222222  -0.5000000), wk =   0.0020576
        k(  162) = (   0.2222222   0.2777778   0.3333333), wk =   0.0041152
        k(  163) = (   0.2222222   0.2777778   0.3888889), wk =   0.0082305
        k(  164) = (   0.2222222   0.2777778   0.4444444), wk =   0.0082305
        k(  165) = (   0.2222222   0.2777778  -0.5000000), wk =   0.0082305
        k(  166) = (   0.2222222   0.3333333   0.4444444), wk =   0.0041152
        k(  167) = (   0.2222222   0.3333333  -0.5000000), wk =   0.0082305
        k(  168) = (   0.2222222   0.3333333  -0.4444444), wk =   0.0041152
        k(  169) = (   0.2222222   0.3888889  -0.4444444), wk =   0.0041152
        k(  170) = (   0.2222222  -0.3333333   0.2222222), wk =   0.0013717
        k(  171) = (   0.2222222  -0.2777778   0.2222222), wk =   0.0020576
        k(  172) = (   0.2777778   0.2777778   0.2777778), wk =   0.0010288
        k(  173) = (   0.2777778   0.2777778   0.3333333), wk =   0.0041152
        k(  174) = (   0.2777778   0.2777778   0.3888889), wk =   0.0041152
        k(  175) = (   0.2777778   0.2777778   0.4444444), wk =   0.0041152
        k(  176) = (   0.2777778   0.2777778  -0.5000000), wk =   0.0020576
        k(  177) = (   0.2777778   0.3333333   0.3888889), wk =   0.0041152
        k(  178) = (   0.2777778   0.3333333   0.4444444), wk =   0.0082305
        k(  179) = (   0.2777778   0.3333333  -0.5000000), wk =   0.0082305
        k(  180) = (   0.2777778   0.3888889  -0.5000000), wk =   0.0041152
        k(  181) = (   0.2777778   0.3888889  -0.4444444), wk =   0.0041152
        k(  182) = (   0.3333333   0.3333333   0.3333333), wk =   0.0010288
        k(  183) = (   0.3333333   0.3333333   0.3888889), wk =   0.0041152
        k(  184) = (   0.3333333   0.3333333   0.4444444), wk =   0.0041152
        k(  185) = (   0.3333333   0.3333333  -0.5000000), wk =   0.0020576
        k(  186) = (   0.3333333   0.3888889   0.4444444), wk =   0.0041152
        k(  187) = (   0.3333333   0.3888889  -0.5000000), wk =   0.0082305
        k(  188) = (   0.3333333   0.4444444  -0.4444444), wk =   0.0013717
        k(  189) = (   0.3888889   0.3888889   0.3888889), wk =   0.0010288
        k(  190) = (   0.3888889   0.3888889   0.4444444), wk =   0.0041152
        k(  191) = (   0.3888889   0.3888889  -0.5000000), wk =   0.0020576
        k(  192) = (   0.3888889   0.4444444  -0.5000000), wk =   0.0041152
        k(  193) = (   0.4444444   0.4444444   0.4444444), wk =   0.0010288
        k(  194) = (   0.4444444   0.4444444  -0.5000000), wk =   0.0020576
        k(  195) = (  -0.5000000  -0.5000000  -0.5000000), wk =   0.0001715

     Dense  grid:    30501 G-vectors     FFT dimensions: (  45,  45,  45)

     Smooth grid:    10005 G-vectors     FFT dimensions: (  30,  30,  30)

     Largest allocated arrays     est. size (Mb)     dimensions
        Kohn-Sham Wavefunctions         0.02 Mb     (      86,   18)
        NL pseudopotentials             0.02 Mb     (      86,   18)
        Each V/rho on FFT grid          0.19 Mb     (    6075,   2)
        Each G-vector array             0.01 Mb     (    1907)
        G-vector shells                 0.01 Mb     (    1907)
     Largest temporary arrays     est. size (Mb)     dimensions
        Auxiliary wavefunctions         0.09 Mb     (      86,   72)
        Each subspace H/S matrix        0.08 Mb     (      72,   72)
        Each <psi_i|beta_j> matrix      0.00 Mb     (      18,   18)
        Arrays for rho mixing           0.74 Mb     (    6075,    8)

     Check: negative/imaginary core charge=   -0.000019    0.000000

     Initial potential from superposition of free atoms

     starting charge   15.99956, renormalised to   16.00000
     Starting wfc are   13 randomized atomic wfcs +    5 random wfc
     Checking if some PAW data can be deallocated... 

     total cpu time spent up to now is        1.8 secs

     per-process dynamical memory:    26.9 Mb

     Self-consistent Calculation

     iteration #  1     ecut=    95.00 Ry     beta=0.50
     Davidson diagonalization with overlap
     ethr =  1.00E-02,  avg # of iterations =  4.8

     negative rho (up, down):  0.000E+00 3.097E-05

     total cpu time spent up to now is        7.0 secs

     total energy              =    -328.98667170 Ry
     Harris-Foulkes estimate   =    -328.51343285 Ry
     estimated scf accuracy    <       0.95962182 Ry

     total magnetization       =     3.71 Bohr mag/cell
     absolute magnetization    =     3.73 Bohr mag/cell

     iteration #  2     ecut=    95.00 Ry     beta=0.50
     Davidson diagonalization with overlap
     ethr =  6.00E-03,  avg # of iterations =  1.0

     negative rho (up, down):  0.000E+00 6.303E-05

     total cpu time spent up to now is        9.5 secs

     total energy              =    -329.21030829 Ry
     Harris-Foulkes estimate   =    -329.02906489 Ry
     estimated scf accuracy    <       0.33410830 Ry

     total magnetization       =     3.20 Bohr mag/cell
     absolute magnetization    =     3.30 Bohr mag/cell

     iteration #  3     ecut=    95.00 Ry     beta=0.50
     Davidson diagonalization with overlap
     ethr =  2.09E-03,  avg # of iterations =  1.1

     negative rho (up, down):  0.000E+00 7.533E-05

     total cpu time spent up to now is       12.1 secs

     total energy              =    -329.24895212 Ry
     Harris-Foulkes estimate   =    -329.26210128 Ry
     estimated scf accuracy    <       0.11541608 Ry

     total magnetization       =     2.71 Bohr mag/cell
     absolute magnetization    =     2.88 Bohr mag/cell

     iteration #  4     ecut=    95.00 Ry     beta=0.50
     Davidson diagonalization with overlap
     ethr =  7.21E-04,  avg # of iterations =  1.0

     negative rho (up, down):  0.000E+00 5.029E-05

     total cpu time spent up to now is       14.6 secs

     total energy              =    -329.26828307 Ry
     Harris-Foulkes estimate   =    -329.26793321 Ry
     estimated scf accuracy    <       0.00226426 Ry

     total magnetization       =     2.41 Bohr mag/cell
     absolute magnetization    =     2.59 Bohr mag/cell

     iteration #  5     ecut=    95.00 Ry     beta=0.50
     Davidson diagonalization with overlap
     ethr =  1.42E-05,  avg # of iterations =  2.1

     negative rho (up, down):  0.000E+00 4.577E-05

     total cpu time spent up to now is       17.6 secs

     total energy              =    -329.27070723 Ry
     Harris-Foulkes estimate   =    -329.27049101 Ry
     estimated scf accuracy    <       0.00037034 Ry

     total magnetization       =     2.23 Bohr mag/cell
     absolute magnetization    =     2.38 Bohr mag/cell

     iteration #  6     ecut=    95.00 Ry     beta=0.50
     Davidson diagonalization with overlap
     ethr =  2.31E-06,  avg # of iterations =  1.3

     negative rho (up, down):  0.000E+00 3.893E-05

     total cpu time spent up to now is       20.2 secs

     total energy              =    -329.27076966 Ry
     Harris-Foulkes estimate   =    -329.27078430 Ry
     estimated scf accuracy    <       0.00012257 Ry

     total magnetization       =     2.23 Bohr mag/cell
     absolute magnetization    =     2.37 Bohr mag/cell

     iteration #  7     ecut=    95.00 Ry     beta=0.50
     Davidson diagonalization with overlap
     ethr =  7.66E-07,  avg # of iterations =  1.9

     negative rho (up, down):  0.000E+00 4.020E-05

     total cpu time spent up to now is       23.0 secs

     total energy              =    -329.27092927 Ry
     Harris-Foulkes estimate   =    -329.27092844 Ry
     estimated scf accuracy    <       0.00000626 Ry

     total magnetization       =     2.19 Bohr mag/cell
     absolute magnetization    =     2.32 Bohr mag/cell

     iteration #  8     ecut=    95.00 Ry     beta=0.50
     Davidson diagonalization with overlap
     ethr =  3.91E-08,  avg # of iterations =  2.0

     negative rho (up, down):  0.000E+00 4.029E-05

     total cpu time spent up to now is       26.0 secs

     total energy              =    -329.27093259 Ry
     Harris-Foulkes estimate   =    -329.27093341 Ry
     estimated scf accuracy    <       0.00000553 Ry

     total magnetization       =     2.19 Bohr mag/cell
     absolute magnetization    =     2.32 Bohr mag/cell

     iteration #  9     ecut=    95.00 Ry     beta=0.50
     Davidson diagonalization with overlap
     ethr =  3.46E-08,  avg # of iterations =  1.0

     negative rho (up, down):  0.000E+00 4.002E-05

     total cpu time spent up to now is       28.5 secs

     total energy              =    -329.27093396 Ry
     Harris-Foulkes estimate   =    -329.27093383 Ry
     estimated scf accuracy    <       0.00000027 Ry

     total magnetization       =     2.19 Bohr mag/cell
     absolute magnetization    =     2.32 Bohr mag/cell

     iteration # 10     ecut=    95.00 Ry     beta=0.50
     Davidson diagonalization with overlap
     ethr =  1.69E-09,  avg # of iterations =  1.7

     negative rho (up, down):  0.000E+00 4.000E-05

     total cpu time spent up to now is       31.2 secs

     total energy              =    -329.27093435 Ry
     Harris-Foulkes estimate   =    -329.27093428 Ry
     estimated scf accuracy    <       0.00000001 Ry

     total magnetization       =     2.19 Bohr mag/cell
     absolute magnetization    =     2.32 Bohr mag/cell

     iteration # 11     ecut=    95.00 Ry     beta=0.50
     Davidson diagonalization with overlap
     ethr =  7.07E-11,  avg # of iterations =  2.2

     negative rho (up, down):  0.000E+00 4.002E-05
 
     Magnetic moment per site:
     atom:    1    charge:   14.4205    magn:    2.2439    constr:    0.0000

     total cpu time spent up to now is       34.2 secs

     End of self-consistent calculation

 ------ SPIN UP ------------


          k = 0.0000 0.0000 0.0000 (  1253 PWs)   bands (ev):

   -70.6330 -36.4565 -36.4565 -36.4565   9.1336  15.2102  15.2102  15.2102
    16.3312  16.3312  41.9841  41.9841  41.9841  46.8061  46.8061  48.8461
    48.8461  48.8461

     occupation numbers 
     1.0000   1.0000   1.0000   1.0000   1.0000   1.0000   1.0000   1.0000
     1.0000   1.0000   0.0000   0.0000   0.0000   0.0000   0.0000   0.0000
     0.0000   0.0000

          k = 0.0000-0.0556 0.0556 (  1242 PWs)   bands (ev):

   -70.6309 -36.4676 -36.4602 -36.4564   9.2582  15.1769  15.2079  15.2759
    16.2980  16.3339  41.1021  41.7904  41.8753  46.2344  46.9757  47.0311
    47.6091  49.1990

     occupation numbers 
     1.0000   1.0000   1.0000   1.0000   1.0000   1.0000   1.0000   1.0000
     1.0000   1.0000   0.0000   0.0000   0.0000   0.0000   0.0000   0.0000
     0.0000   0.0000

          k = 0.0000-0.1111 0.1111 (  1242 PWs)   bands (ev):

   -70.6251 -36.4995 -36.4709 -36.4564   9.6246  15.0818  15.1902  15.4683
    16.2215  16.3424  39.0976  41.1087  41.6065  45.1009  45.7800  45.8359
    48.5648  50.1942

     occupation numbers 
     1.0000   1.0000   1.0000   1.0000   1.0000   1.0000   1.0000   1.0000
     1.0000   1.0000   0.0000   0.0000   0.0000   0.0000   0.0000   0.0000
     0.0000   0.0000

          k = 0.0000-0.1667 0.1667 (  1244 PWs)   bands (ev):

   -70.6162 -36.5482 -36.4872 -36.4563  10.2076  14.9386  15.1364  15.7724
    16.1603  16.3580  36.6488  40.0090  41.2821  43.2744  44.8830  46.1750
    49.6279  51.7121

     occupation numbers 
     1.0000   1.0000   1.0000   1.0000   1.0000   1.0000   1.0000   1.0000
     1.0000   1.0000   0.0000   0.0000   0.0000   0.0000   0.0000   0.0000
     0.0000   0.0000

          k = 0.0000-0.2222 0.2222 (  1248 PWs)   bands (ev):

   -70.6053 -36.6076 -36.5073 -36.4562  10.9508  14.7665  15.0673  16.1627
    16.1629  16.3815  34.0621  38.7909  40.9742  41.5857  44.3173  47.0689
    50.4470  53.6573

     occupation numbers 
     1.0000   1.0000   1.0000   1.0000   1.0000   1.0000   1.0000   1.0000
     1.0000   1.0000   0.0000   0.0000   0.0000   0.0000   0.0000   0.0000
     0.0000   0.0000

          k = 0.0000-0.2778 0.2778 (  1248 PWs)   bands (ev):

   -70.5937 -36.6704 -36.5285 -36.4561  11.7306  14.5877  15.1106  16.2282
    16.4120  16.6020  31.4931  37.6564  40.0773  40.7153  44.0021  48.3496
    50.9562  55.9686

     occupation numbers 
     1.0000   1.0000   1.0000   1.0000   1.0000   1.0000   1.0000   1.0000
     1.0000   1.0000   0.0000   0.0000   0.0000   0.0000   0.0000   0.0000
     0.0000   0.0000

          k = 0.0000-0.3333 0.3333 (  1244 PWs)   bands (ev):

   -70.5827 -36.7291 -36.5485 -36.4560  12.3266  14.4235  15.4867  16.3361
    16.4459  17.0413  29.0488  36.7049  38.8026  40.5157  43.8654  49.9273
    51.1909  58.6016

     occupation numbers 
     1.0000   1.0000   1.0000   1.0000   1.0000   1.0000   1.0000   1.0000
     1.0000   1.0049   0.0000   0.0000   0.0000   0.0000   0.0000   0.0000
     0.0000   0.0000

          k = 0.0000-0.3889 0.3889 (  1248 PWs)   bands (ev):

   -70.5738 -36.7766 -36.5647 -36.4560  12.5975  14.2922  16.1516  16.4774
    16.5982  17.4217  26.8511  35.9915  37.8233  40.3759  43.8389  51.2396
    51.7422  60.9542

     occupation numbers 
     1.0000   1.0000   1.0000   1.0000   1.0000   1.0000   1.0000   1.0000
     1.0000   0.3455   0.0000   0.0000   0.0000   0.0000   0.0000   0.0000
     0.0000   0.0000

          k = 0.0000-0.4444 0.4444 (  1244 PWs)   bands (ev):

   -70.5679 -36.8076 -36.5752 -36.4559  12.6638  14.2077  16.3674  16.5000
    17.4227  17.6826  25.1362  35.5502  37.2023  40.2936  43.8577  51.2087
    53.7248  58.5564

     occupation numbers 
     1.0000   1.0000   1.0000   1.0000   1.0000   1.0000   1.0000   1.0000
     0.3411   0.0003   0.0000   0.0000   0.0000   0.0000   0.0000   0.0000
     0.0000   0.0000

          k = 0.0000 0.5000-0.5000 (  1248 PWs)   bands (ev):

   -70.5659 -36.8183 -36.5789 -36.4559  12.6705  14.1786  16.4032  16.5082
    17.7757  17.8914  24.4209  35.4009  36.9890  40.2665  43.8706  51.1868
    55.2993  56.8388

     occupation numbers 
     1.0000   1.0000   1.0000   1.0000   1.0000   1.0000   1.0000   1.0000
     0.0000   0.0000   0.0000   0.0000   0.0000   0.0000   0.0000   0.0000
     0.0000   0.0000

          k =-0.0556-0.0556 0.1111 (  1246 PWs)   bands (ev):

   -70.6270 -36.4897 -36.4640 -36.4592   9.5038  15.1339  15.1679  15.4142
    16.2382  16.3438  39.9183  40.7351  42.1076  45.0594  45.7619  47.0724
    48.4025  49.1279

     occupation numbers 
     1.0000   1.0000   1.0000   1.0000   1.0000   1.0000   1.0000   1.0000
     1.0000   1.0000   0.0000   0.0000   0.0000   0.0000   0.0000   0.0000
     0.0000   0.0000

          k =-0.0556-0.1111 0.1667 (  1243 PWs)   bands (ev):

   -70.6197 -36.5297 -36.4766 -36.4603   9.9798  15.0187  15.1189  15.6729
    16.1580  16.3655  37.8710  39.5568  42.0162  43.2719  45.6647  46.4373
    49.5602  50.1756

     occupation numbers 
     1.0000   1.0000   1.0000   1.0000   1.0000   1.0000   1.0000   1.0000
     1.0000   1.0000   0.0000   0.0000   0.0000   0.0000   0.0000   0.0000
     0.0000   0.0000

          k =-0.0556-0.1667 0.2222 (  1256 PWs)   bands (ev):

   -70.6098 -36.5827 -36.4956 -36.4604  10.6487  14.8578  15.0429  16.0303
    16.1225  16.3952  35.3949  38.4310  41.3097  42.0762  45.6022  46.2666
    50.6597  51.9207

     occupation numbers 
     1.0000   1.0000   1.0000   1.0000   1.0000   1.0000   1.0000   1.0000
     1.0000   1.0000   0.0000   0.0000   0.0000   0.0000   0.0000   0.0000
     0.0000   0.0000

          k =-0.0556-0.2222 0.2778 (  1251 PWs)   bands (ev):

   -70.5985 -36.6424 -36.5175 -36.4605  11.4276  14.6798  14.9923  16.1518
    16.4267  16.4736  32.8211  37.3667  39.9823  41.6200  45.0736  47.1913
    51.4773  54.0859

     occupation numbers 
     1.0000   1.0000   1.0000   1.0000   1.0000   1.0000   1.0000   1.0000
     1.0000   1.0000   0.0000   0.0000   0.0000   0.0000   0.0000   0.0000
     0.0000   0.0000

          k =-0.0556-0.2778 0.3333 (  1248 PWs)   bands (ev):

   -70.5872 -36.7017 -36.5395 -36.4605  12.1431  14.5075  15.1351  16.2433
    16.4716  16.9471  30.3049  36.4246  38.7323  41.3129  44.7471  48.3694
    52.0609  56.5841

     occupation numbers 
     1.0000   1.0000   1.0000   1.0000   1.0000   1.0000   1.0000   1.0000
     1.0000   1.0002   0.0000   0.0000   0.0000   0.0000   0.0000   0.0000
     0.0000   0.0000

          k =-0.0556-0.3333 0.3889 (  1251 PWs)   bands (ev):

   -70.5772 -36.7535 -36.5588 -36.4604  12.5709  14.3606  15.6195  16.3631
    16.5543  17.4384  27.9605  35.6623  37.7008  41.0901  44.5961  49.5317
    52.6607  59.3679

     occupation numbers 
     1.0000   1.0000   1.0000   1.0000   1.0000   1.0000   1.0000   1.0000
     1.0000   0.2716   0.0000   0.0000   0.0000   0.0000   0.0000   0.0000
     0.0000   0.0000

          k =-0.0556-0.3889 0.4444 (  1248 PWs)   bands (ev):

   -70.5698 -36.7918 -36.5731 -36.4604  12.7099  14.2540  16.1227  16.4231
    16.8823  17.9656  25.9482  35.1256  36.9616  40.9449  44.5539  50.3064
    53.6926  59.2691

     occupation numbers 
     1.0000   1.0000   1.0000   1.0000   1.0000   1.0000   1.0000   1.0000
     1.0000   0.0000   0.0000   0.0000   0.0000   0.0000   0.0000   0.0000
     0.0000   0.0000

          k =-0.0556 0.5556-0.5000 (  1244 PWs)   bands (ev):

   -70.5659 -36.8121 -36.5808 -36.4604  12.7308  14.1981  16.3198  16.4089
    17.2549  18.4961  24.6288  34.8479  36.5745  40.8735  44.5542  50.5941
    55.2760  57.2725

     occupation numbers 
     1.0000   1.0000   1.0000   1.0000   1.0000   1.0000   1.0000   1.0000
     1.0612   0.0000   0.0000   0.0000   0.0000   0.0000   0.0000   0.0000
     0.0000   0.0000

          k =-0.1111-0.1111 0.2222 (  1245 PWs)   bands (ev):

   -70.6113 -36.5740 -36.4868 -36.4668  10.5455  14.9303  14.9828  16.0062
    16.0905  16.4112  36.3926  37.5426  41.5148  42.3025  45.5677  47.2609
    50.3463  51.0154

     occupation numbers 
     1.0000   1.0000   1.0000   1.0000   1.0000   1.0000   1.0000   1.0000
     1.0000   1.0000   0.0000   0.0000   0.0000   0.0000   0.0000   0.0000
     0.0000   0.0000

          k =-0.1111-0.1667 0.2778 (  1250 PWs)   bands (ev):

   -70.6011 -36.6259 -36.5064 -36.4697  11.2680  14.7728  14.8701  16.0771
    16.4189  16.4850  34.2044  36.0936  40.0440  42.2745  45.8548  47.4234
    51.6884  52.4077

     occupation numbers 
     1.0000   1.0000   1.0000   1.0000   1.0000   1.0000   1.0000   1.0000
     1.0000   1.0000   0.0000   0.0000   0.0000   0.0000   0.0000   0.0000
     0.0000   0.0000

          k =-0.1111-0.2222 0.3333 (  1250 PWs)   bands (ev):

   -70.5901 -36.6796 -36.5304 -36.4708  12.0302  14.5902  14.8486  16.1334
    16.5083  16.9662  31.7081  35.0593  38.7742  42.1125  46.2677  47.5074
    53.2128  54.0421

     occupation numbers 
     1.0000   1.0000   1.0000   1.0000   1.0000   1.0000   1.0000   1.0000
     1.0000   1.0004   0.0000   0.0000   0.0000   0.0000   0.0000   0.0000
     0.0000   0.0000

          k =-0.1111-0.2778 0.3889 (  1250 PWs)   bands (ev):

   -70.5798 -36.7292 -36.5541 -36.4714  12.6122  14.4347  15.0515  16.2406
    16.5742  17.5616  29.2677  34.2326  37.7191  41.9399  46.3995  48.0586
    53.9583  56.5739

     occupation numbers 
     1.0000   1.0000   1.0000   1.0000   1.0000   1.0000   1.0000   1.0000
     1.0000   0.0197   0.0000   0.0000   0.0000   0.0000   0.0000   0.0000
     0.0000   0.0000

          k =-0.1111-0.3333 0.4444 (  1245 PWs)   bands (ev):

   -70.5714 -36.7692 -36.5737 -36.4717  12.8605  14.3184  15.4805  16.3438
    16.7141  18.2620  27.0410  33.6079  36.9184  41.8056  46.4033  48.7765
    54.5828  59.1428

     occupation numbers 
     1.0000   1.0000   1.0000   1.0000   1.0000   1.0000   1.0000   1.0000
     1.0000   0.0000   0.0000   0.0000   0.0000   0.0000   0.0000   0.0000
     0.0000   0.0000

          k =-0.1111 0.6111-0.5000 (  1246 PWs)   bands (ev):

   -70.5659 -36.7951 -36.5867 -36.4719  12.9066  14.2456  15.8225  16.3782
    16.9461  19.0501  25.2566  33.2136  36.4161  41.7230  46.4147  49.3038
    55.2710  58.1300

     occupation numbers 
     1.0000   1.0000   1.0000   1.0000   1.0000   1.0000   1.0000   1.0000
     1.0002   0.0000   0.0000   0.0000   0.0000   0.0000   0.0000   0.0000
     0.0000   0.0000

          k =-0.1111 0.5556-0.4444 (  1243 PWs)   bands (ev):

   -70.5640 -36.8040 -36.5912 -36.4719  12.9063  14.2207  15.9345  16.3779
    17.0624  19.4914  24.4783  33.0781  36.2447  41.6953  46.4239  49.4900
    55.7355  57.5193

     occupation numbers 
     1.0000   1.0000   1.0000   1.0000   1.0000   1.0000   1.0000   1.0000
     1.0086   0.0000   0.0000   0.0000   0.0000   0.0000   0.0000   0.0000
     0.0000   0.0000

          k =-0.1667-0.1667 0.3333 (  1250 PWs)   bands (ev):

   -70.5911 -36.6710 -36.5252 -36.4774  11.9922  14.6310  14.7400  16.0844
    16.5211  16.9841  32.8878  33.8157  38.8337  42.4979  45.9031  48.9193
    51.9398  54.2620

     occupation numbers 
     1.0000   1.0000   1.0000   1.0000   1.0000   1.0000   1.0000   1.0000
     1.0000   1.0008   0.0000   0.0000   0.0000   0.0000   0.0000   0.0000
     0.0000   0.0000

          k =-0.1667-0.2222 0.3889 (  1251 PWs)   bands (ev):

   -70.5812 -36.7130 -36.5505 -36.4815  12.6689  14.4546  14.7526  16.1504
    16.5859  17.6422  30.7191  32.5672  37.8223  42.5638  46.2685  49.5092
    53.3839  55.7424

     occupation numbers 
     1.0000   1.0000   1.0000   1.0000   1.0000   1.0000   1.0000   1.0000
     1.0000   0.0015   0.0000   0.0000   0.0000   0.0000   0.0000   0.0000
     0.0000   0.0000

          k =-0.1667-0.2778 0.4444 (  1249 PWs)   bands (ev):

   -70.5724 -36.7478 -36.5763 -36.4836  13.0722  14.3429  14.9490  16.2557
    16.6665  18.4503  28.3817  31.8092  37.0218  42.5462  46.8610  49.5051
    55.0568  56.9462

     occupation numbers 
     1.0000   1.0000   1.0000   1.0000   1.0000   1.0000   1.0000   1.0000
     1.0000   0.0000   0.0000   0.0000   0.0000   0.0000   0.0000   0.0000
     0.0000   0.0000

          k =-0.1667 0.6667-0.5000 (  1239 PWs)   bands (ev):

   -70.5659 -36.7725 -36.5968 -36.4847  13.1768  14.2822  15.2465  16.3430
    16.7966  19.4195  26.2869  31.2937  36.4624  42.5119  47.5432  49.3149
    55.2219  58.7738

     occupation numbers 
     1.0000   1.0000   1.0000   1.0000   1.0000   1.0000   1.0000   1.0000
     1.0000   0.0000   0.0000   0.0000   0.0000   0.0000   0.0000   0.0000
     0.0000   0.0000

          k =-0.1667 0.6111-0.4444 (  1243 PWs)   bands (ev):

   -70.5624 -36.7853 -36.6082 -36.4852  13.1750  14.2530  15.4295  16.3764
    16.9204  20.3225  24.7996  31.0268  36.1741  42.4901  48.1501  49.0119
    54.9480  59.2870

     occupation numbers 
     1.0000   1.0000   1.0000   1.0000   1.0000   1.0000   1.0000   1.0000
     1.0001   0.0000   0.0000   0.0000   0.0000   0.0000   0.0000   0.0000
     0.0000   0.0000

          k =-0.2222-0.2222 0.4444 (  1246 PWs)   bands (ev):

   -70.5728 -36.7387 -36.5779 -36.4887  13.1968  14.3001  14.7712  16.2151
    16.6554  18.5139  29.6351  30.3847  37.0696  42.9357  46.2989  51.6163
    53.3841  57.0169

     occupation numbers 
     1.0000   1.0000   1.0000   1.0000   1.0000   1.0000   1.0000   1.0000
     1.0000   0.0000   0.0000   0.0000   0.0000   0.0000   0.0000   0.0000
     0.0000   0.0000

          k =-0.2222 0.7222-0.5000 (  1242 PWs)   bands (ev):

   -70.5659 -36.7548 -36.6068 -36.4927  13.4581  14.2348  14.8718  16.3140
    16.7266  19.5964  27.6230  29.4899  36.5132  43.1879  46.5667  52.0613
    54.5798  56.7178

     occupation numbers 
     1.0000   1.0000   1.0000   1.0000   1.0000   1.0000   1.0000   1.0000
     1.0000   0.0000   0.0000   0.0000   0.0000   0.0000   0.0000   0.0000
     0.0000   0.0000

          k =-0.2222 0.6667-0.4444 (  1236 PWs)   bands (ev):

   -70.5614 -36.7622 -36.6293 -36.4947  13.4973  14.2487  14.9789  16.3968
    16.8024  20.8155  25.6796  29.0747  36.1691  43.3193  46.9441  51.7187
    54.5663  58.8898

     occupation numbers 
     1.0000   1.0000   1.0000   1.0000   1.0000   1.0000   1.0000   1.0000
     1.0000   0.0000   0.0000   0.0000   0.0000   0.0000   0.0000   0.0000
     0.0000   0.0000

          k =-0.2222 0.6111-0.3889 (  1238 PWs)   bands (ev):

   -70.5599 -36.7641 -36.6379 -36.4953  13.4895  14.2608  15.0210  16.4254
    16.8399  21.5727  24.6734  28.9368  36.0525  43.3582  47.1358  51.5129
    54.4007  61.0633

     occupation numbers 
     1.0000   1.0000   1.0000   1.0000   1.0000   1.0000   1.0000   1.0000
     1.0000   0.0000   0.0000   0.0000   0.0000   0.0000   0.0000   0.0000
     0.0000   0.0000

          k =-0.2778 0.7222-0.4444 (  1237 PWs)   bands (ev):

   -70.5611 -36.7501 -36.6408 -36.4980  13.7033  14.1908  14.7862  16.4142
    16.7491  20.9651  26.6637  27.7440  36.1725  43.8077  46.3013  53.3210
    54.9937  56.6439

     occupation numbers 
     1.0000   1.0000   1.0000   1.0000   1.0000   1.0000   1.0000   1.0000
     1.0000   0.0000   0.0000   0.0000   0.0000   0.0000   0.0000   0.0000
     0.0000   0.0000

          k =-0.2778 0.6667-0.3889 (  1231 PWs)   bands (ev):

   -70.5585 -36.7392 -36.6677 -36.5004  13.7737  14.2600  14.6917  16.5045
    16.7423  22.3833  25.0862  27.2201  36.0006  44.2354  46.1302  52.7592
    55.7298  58.8364

     occupation numbers 
     1.0000   1.0000   1.0000   1.0000   1.0000   1.0000   1.0000   1.0000
     1.0000   0.0000   0.0000   0.0000   0.0000   0.0000   0.0000   0.0000
     0.0000   0.0000

          k =-0.3333 0.6667-0.3333 (  1232 PWs)   bands (ev):

   -70.5575 -36.7062 -36.7062 -36.5021  13.8874  14.4177  14.4177  16.6332
    16.6332  23.9736  23.9736  26.4454  35.9454  45.2028  45.2028  52.6409
    58.7057  58.7062

     occupation numbers 
     1.0000   1.0000   1.0000   1.0000   1.0000   1.0000   1.0000   1.0000
     1.0000   0.0000   0.0000   0.0000   0.0000   0.0000   0.0000   0.0000
     0.0000   0.0000

          k = 0.0000 0.0000 0.1111 (  1245 PWs)   bands (ev):

   -70.6290 -36.4710 -36.4639 -36.4639   9.3817  15.2092  15.2092  15.2770
    16.2238  16.3735  40.5227  41.6677  41.6677  44.8589  46.7353  46.7353
    48.8420  48.9222

     occupation numbers 
     1.0000   1.0000   1.0000   1.0000   1.0000   1.0000   1.0000   1.0000
     1.0000   1.0000   0.0000   0.0000   0.0000   0.0000   0.0000   0.0000
     0.0000   0.0000

          k = 0.0000-0.0556 0.1667 (  1239 PWs)   bands (ev):

   -70.6232 -36.5004 -36.4747 -36.4658   9.7450  15.1356  15.2011  15.4508
    16.1078  16.4109  38.9647  40.8649  41.1389  44.1076  45.5904  45.9616
    49.6374  50.3404

     occupation numbers 
     1.0000   1.0000   1.0000   1.0000   1.0000   1.0000   1.0000   1.0000
     1.0000   1.0000   0.0000   0.0000   0.0000   0.0000   0.0000   0.0000
     0.0000   0.0000

[...]
     0.0000   0.0000   0.0000   0.0000   0.0000   0.0000   0.0000   0.0000
     0.0000   0.0000

          k =-0.1125 0.8438-0.2813 (  1199 PWs)   bands (ev):

   -67.1127 -33.4341 -33.3480 -33.2315  15.8230  16.1150  17.9568  19.4151
    20.3572  24.3938  28.5908  30.2601  37.9586  40.0005  46.0416  50.5680
    57.6529  60.7487

     occupation numbers 
     1.0000   1.0000   1.0000   1.0000   1.0000   1.0000   1.0173   0.0000
     0.0000   0.0000   0.0000   0.0000   0.0000   0.0000   0.0000   0.0000
     0.0000   0.0000

          k =-0.1125 0.7876-0.2250 (  1203 PWs)   bands (ev):

   -67.1106 -33.4381 -33.3575 -33.2310  15.8751  16.0756  17.9053  19.5043
    20.4194  25.4387  27.3221  30.0777  37.9454  40.4675  45.3030  50.4878
    57.6339  63.3150

     occupation numbers 
     1.0000   1.0000   1.0000   1.0000   1.0000   1.0000   1.0048   0.0000
     0.0000   0.0000   0.0000   0.0000   0.0000   0.0000   0.0000   0.0000
     0.0000   0.0000

          k =-0.1688 0.8438-0.2250 (  1198 PWs)   bands (ev):

   -67.1091 -33.4195 -33.3847 -33.2319  15.9569  15.9867  17.8498  19.8249
    20.2084  25.9567  27.7441  28.8333  38.8845  39.6915  44.8216  50.4892
    60.3841  61.1056

     occupation numbers 
     1.0000   1.0000   1.0000   1.0000   1.0000   1.0000   1.0008   0.0000
     0.0000   0.0000   0.0000   0.0000   0.0000   0.0000   0.0000   0.0000
     0.0000   0.0000

          k = 0.5625-0.5625 0.4500 (  1190 PWs)   bands (ev):

   -67.1406 -33.3675 -33.2520 -33.2520  16.3008  16.3008  16.3995  20.2196
    20.2196  25.4967  28.9042  28.9042  30.3185  53.9783  55.7863  55.7863
    57.6589  60.2265

     occupation numbers 
     1.0000   1.0000   1.0000   1.0000   1.0000   1.0000   1.0000   0.0000
     0.0000   0.0000   0.0000   0.0000   0.0000   0.0000   0.0000   0.0000
     0.0000   0.0000

          k = 0.5063-0.5063 0.4500 (  1194 PWs)   bands (ev):

   -67.1398 -33.3330 -33.2910 -33.2536  16.2915  16.2944  16.4749  20.2282
    20.2447  26.7069  27.6052  28.7864  30.0502  54.7639  56.6680  56.9194
    57.6620  58.8118

     occupation numbers 
     1.0000   1.0000   1.0000   1.0000   1.0000   1.0000   1.0000   0.0000
     0.0000   0.0000   0.0000   0.0000   0.0000   0.0000   0.0000   0.0000
     0.0000   0.0000

          k = 0.0000-0.0000 0.5625 (  1192 PWs)   bands (ev):

   -67.1387 -33.3333 -33.2562 -33.2562  14.7003  17.0610  18.4135  18.4135
    19.3866  21.1947  34.6688  34.6688  35.9883  37.9721  52.5531  53.2002
    53.8121  53.8121

     occupation numbers 
     1.0000   1.0000   1.0000   1.0000   1.0000   1.0000   0.0278   0.0278
     0.0000   0.0000   0.0000   0.0000   0.0000   0.0000   0.0000   0.0000
     0.0000   0.0000

          k = 0.0000-0.0563 0.6188 (  1193 PWs)   bands (ev):

   -67.1268 -33.3695 -33.2831 -33.2690  15.1597  16.6526  18.5305  18.6860
    19.7421  21.7779  32.7202  33.5447  36.0663  38.0104  50.1392  52.6979
    54.8961  56.3885

     occupation numbers 
     1.0000   1.0000   1.0000   1.0000   1.0000   1.0000   0.0006   0.0000
     0.0000   0.0000   0.0000   0.0000   0.0000   0.0000   0.0000   0.0000
     0.0000   0.0000

          k = 0.0000-0.1125 0.6750 (  1202 PWs)   bands (ev):

   -67.1172 -33.4109 -33.3050 -33.2673  15.4841  16.3100  18.5215  18.9099
    20.1898  22.7370  30.4906  32.6423  36.0537  38.8090  47.9583  52.1959
    55.3145  59.3198

     occupation numbers 
     1.0000   1.0000   1.0000   1.0000   1.0000   1.0000   0.0009   0.0000
     0.0000   0.0000   0.0000   0.0000   0.0000   0.0000   0.0000   0.0000
     0.0000   0.0000

          k = 0.0000-0.1688 0.7313 (  1196 PWs)   bands (ev):

   -67.1109 -33.4399 -33.3192 -33.2640  15.6695  16.0940  18.4920  19.0174
    20.5396  24.0229  28.4443  32.0443  35.9732  39.7978  46.2360  51.8878
    55.4172  62.3402

     occupation numbers 
     1.0000   1.0000   1.0000   1.0000   1.0000   1.0000   0.0026   0.0000
     0.0000   0.0000   0.0000   0.0000   0.0000   0.0000   0.0000   0.0000
     0.0000   0.0000

          k = 0.0000 0.7876-0.2250 (  1206 PWs)   bands (ev):

   -67.1087 -33.4502 -33.3242 -33.2627  15.7254  16.0250  18.4793  19.0448
    20.6712  24.9667  27.2529  31.8329  35.9385  40.3054  45.4937  51.7843
    55.4314  64.4658

     occupation numbers 
     1.0000   1.0000   1.0000   1.0000   1.0000   1.0000   0.0039   0.0000
     0.0000   0.0000   0.0000   0.0000   0.0000   0.0000   0.0000   0.0000
     0.0000   0.0000

          k =-0.0563-0.0563 0.6750 (  1198 PWs)   bands (ev):

   -67.1164 -33.3932 -33.3136 -33.2805  15.4415  16.3020  18.6430  19.0127
    20.0255  22.6350  31.7078  31.8710  36.2289  37.8938  47.8688  52.8366
    56.9258  57.4171

     occupation numbers 
     1.0000   1.0000   1.0000   1.0000   1.0000   1.0000   0.0000   0.0000
     0.0000   0.0000   0.0000   0.0000   0.0000   0.0000   0.0000   0.0000
     0.0000   0.0000

          k =-0.0563-0.1125 0.7313 (  1199 PWs)   bands (ev):

   -67.1086 -33.4188 -33.3370 -33.2800  15.6182  16.0270  18.6230  19.2918
    20.3373  23.8633  29.6975  31.0827  36.4079  38.4546  45.9054  52.5903
    57.4010  60.0713

     occupation numbers 
     1.0000   1.0000   1.0000   1.0000   1.0000   1.0000   0.0000   0.0000
     0.0000   0.0000   0.0000   0.0000   0.0000   0.0000   0.0000   0.0000
     0.0000   0.0000

          k =-0.0563 0.8438-0.2250 (  1205 PWs)   bands (ev):

   -67.1045 -33.4342 -33.3491 -33.2783  15.7120  15.8711  18.5948  19.4191
    20.5468  25.2816  27.8417  30.6838  36.4117  39.1706  44.6040  52.4336
    57.4351  62.9817

     occupation numbers 
     1.0000   1.0000   1.0000   1.0000   1.0000   1.0000   0.0000   0.0000
     0.0000   0.0000   0.0000   0.0000   0.0000   0.0000   0.0000   0.0000
     0.0000   0.0000

          k =-0.1125 0.9001-0.2250 (  1207 PWs)   bands (ev):

   -67.1030 -33.4202 -33.3693 -33.2806  15.6945  15.8301  18.5797  19.7276
    20.3813  25.3000  28.9056  29.4216  37.0965  38.3541  44.2968  52.5336
    59.9698  60.5370

     occupation numbers 
     1.0000   1.0000   1.0000   1.0000   1.0000   1.0000   0.0001   0.0000
     0.0000   0.0000   0.0000   0.0000   0.0000   0.0000   0.0000   0.0000
     0.0000   0.0000

          k =-0.1125 0.8438-0.1688 (  1208 PWs)   bands (ev):

   -67.1011 -33.4174 -33.3844 -33.2801  15.7324  15.7479  18.5562  19.9255
    20.3632  26.5839  27.5953  29.0795  37.3650  38.4321  43.6285  52.4897
    60.1553  62.8585

     occupation numbers 
     1.0000   1.0000   1.0000   1.0000   1.0000   1.0000   0.0002   0.0000
     0.0000   0.0000   0.0000   0.0000   0.0000   0.0000   0.0000   0.0000
     0.0000   0.0000

          k = 0.0000-0.0000 0.6750 (  1192 PWs)   bands (ev):

   -67.1156 -33.3700 -33.3106 -33.3106  15.3816  16.3051  18.9629  18.9629
    19.8387  22.5026  32.3555  32.3555  35.4624  37.2404  47.8094  54.3299
    56.7903  56.7903

     occupation numbers 
     1.0000   1.0000   1.0000   1.0000   1.0000   1.0000   0.0000   0.0000
     0.0000   0.0000   0.0000   0.0000   0.0000   0.0000   0.0000   0.0000
     0.0000   0.0000

          k = 0.0000-0.0563 0.7313 (  1202 PWs)   bands (ev):

   -67.1065 -33.3947 -33.3330 -33.3200  15.5000  15.9905  19.1437  19.2488
    20.1532  23.5642  30.7743  31.3935  35.5546  37.3258  45.6844  54.3733
    57.8342  59.1125

     occupation numbers 
     1.0000   1.0000   1.0000   1.0000   1.0000   1.0000   0.0000   0.0000
     0.0000   0.0000   0.0000   0.0000   0.0000   0.0000   0.0000   0.0000
     0.0000   0.0000

          k =-0.0000-0.1125 0.7876 (  1204 PWs)   bands (ev):

   -67.1005 -33.4195 -33.3475 -33.3172  15.5675  15.7672  19.1761  19.4223
    20.4866  24.9501  28.8675  30.7496  35.6883  37.9063  44.0242  54.1676
    58.1235  61.9247

     occupation numbers 
     1.0000   1.0000   1.0000   1.0000   1.0000   1.0000   0.0000   0.0000
     0.0000   0.0000   0.0000   0.0000   0.0000   0.0000   0.0000   0.0000
     0.0000   0.0000

          k =-0.0000 0.8438-0.1688 (  1210 PWs)   bands (ev):

   -67.0984 -33.4288 -33.3526 -33.3156  15.6153  15.6620  19.1780  19.4765
    20.6217  26.1167  27.5132  30.5201  35.7157  38.2866  43.3210  54.0847
    58.1679  63.8441

     occupation numbers 
     1.0000   1.0000   1.0000   1.0000   1.0000   1.0000   0.0000   0.0000
     0.0000   0.0000   0.0000   0.0000   0.0000   0.0000   0.0000   0.0000
     0.0000   0.0000

          k =-0.0563-0.0563 0.7876 (  1210 PWs)   bands (ev):

   -67.0991 -33.4059 -33.3592 -33.3270  15.5104  15.7378  19.2606  19.6619
    20.3522  24.8092  29.9135  30.0658  35.7247  37.2154  43.8242  54.7013
    59.8854  60.1801

     occupation numbers 
     1.0000   1.0000   1.0000   1.0000   1.0000   1.0000   0.0000   0.0000
     0.0000   0.0000   0.0000   0.0000   0.0000   0.0000   0.0000   0.0000
     0.0000   0.0000

          k =-0.0563 0.9001-0.1688 (  1208 PWs)   bands (ev):

   -67.0952 -33.4153 -33.3747 -33.3258  15.5238  15.5845  19.2746  19.9040
    20.5062  26.2875  28.2690  29.5684  35.9984  37.3825  42.6375  54.6740
    60.1842  62.7606

     occupation numbers 
     1.0000   1.0000   1.0000   1.0000   1.0000   1.0000   0.0000   0.0000
     0.0000   0.0000   0.0000   0.0000   0.0000   0.0000   0.0000   0.0000
     0.0000   0.0000

          k =-0.1125 0.9001-0.1125 (  1213 PWs)   bands (ev):

   -67.0934 -33.4004 -33.4004 -33.3258  15.5135  15.5135  19.2749  20.3141
    20.3141  27.6784  27.6784  28.5329  36.7223  36.7223  42.1102  54.7410
    61.6994  63.9826

     occupation numbers 
     1.0000   1.0000   1.0000   1.0000   1.0000   1.0000   0.0000   0.0000
     0.0000   0.0000   0.0000   0.0000   0.0000   0.0000   0.0000   0.0000
     0.0000   0.0000

          k = 0.0000-0.0000 0.7876 (  1212 PWs)   bands (ev):

   -67.0978 -33.3884 -33.3557 -33.3557  15.4450  15.7074  19.6387  19.6387
    20.2130  24.6260  30.3710  30.3710  35.1481  36.7352  43.6580  55.7109
    60.0585  60.0585

     occupation numbers 
     1.0000   1.0000   1.0000   1.0000   1.0000   1.0000   0.0000   0.0000
     0.0000   0.0000   0.0000   0.0000   0.0000   0.0000   0.0000   0.0000
     0.0000   0.0000

          k = 0.0000-0.0563 0.8438 (  1212 PWs)   bands (ev):

   -67.0920 -33.4030 -33.3705 -33.3601  15.4002  15.5069  19.8197  19.9078
    20.4482  25.9491  29.1434  29.6768  35.2717  36.5961  42.1431  56.0535
    61.0431  62.2140

     occupation numbers 
     1.0000   1.0000   1.0000   1.0000   1.0000   1.0000   0.0000   0.0000
     0.0000   0.0000   0.0000   0.0000   0.0000   0.0000   0.0000   0.0000
     0.0000   0.0000

          k = 0.0000 0.9001-0.1125 (  1212 PWs)   bands (ev):

   -67.0901 -33.4113 -33.3757 -33.3584  15.4028  15.4164  19.8442  19.9996
    20.5815  27.1921  27.8679  29.4267  35.4208  36.6057  41.5397  56.0886
    61.2083  63.9067

     occupation numbers 
     1.0000   1.0000   1.0000   1.0000   1.0000   1.0000   0.0000   0.0000
     0.0000   0.0000   0.0000   0.0000   0.0000   0.0000   0.0000   0.0000
     0.0000   0.0000

          k =-0.0563 0.9563-0.1125 (  1215 PWs)   bands (ev):

   -67.0883 -33.4030 -33.3894 -33.3633  15.3441  15.3732  19.9150  20.2809
    20.5040  27.2529  28.5660  28.7617  35.4743  36.1076  41.1661  56.4842
    62.5619  63.6701

     occupation numbers 
     1.0000   1.0000   1.0000   1.0000   1.0000   1.0000   0.0000   0.0000
     0.0000   0.0000   0.0000   0.0000   0.0000   0.0000   0.0000   0.0000
     0.0000   0.0000

          k =-0.0000 0.0000 0.9001 (  1216 PWs)   bands (ev):

   -67.0865 -33.3947 -33.3855 -33.3855  15.2822  15.3266  20.2692  20.2692
    20.4600  27.0416  28.9376  28.9376  34.9840  35.8301  40.8592  57.1061
    63.5620  63.5620

     occupation numbers 
     1.0000   1.0000   1.0000   1.0000   1.0000   1.0000   0.0000   0.0000
     0.0000   0.0000   0.0000   0.0000   0.0000   0.0000   0.0000   0.0000
     0.0000   0.0000

          k =-0.0000 0.9563-0.0563 (  1216 PWs)   bands (ev):

   -67.0846 -33.3999 -33.3907 -33.3863  15.2476  15.2556  20.3512  20.3993
    20.5554  28.0427  28.2270  28.6682  35.0940  35.3986  40.4001  57.3855
    64.3380  65.0276

     occupation numbers 
     1.0000   1.0000   1.0000   1.0000   1.0000   1.0000   0.0000   0.0000
     0.0000   0.0000   0.0000   0.0000   0.0000   0.0000   0.0000   0.0000
     0.0000   0.0000

          k =-0.0000 0.0000-1.0126 (  1168 PWs)   bands (ev):

   -67.0826 -33.3959 -33.3959 -33.3959  15.1960  15.1960  20.5463  20.5463
    20.5463  28.3902  28.3902  28.3902  34.9334  34.9334  40.0165  57.7938
    67.2668  67.2668

     occupation numbers 
     1.0000   1.0000   1.0000   1.0000   1.0000   1.0000   0.0000   0.0000
     0.0000   0.0000   0.0000   0.0000   0.0000   0.0000   0.0000   0.0000
     0.0000   0.0000

     the Fermi energy is    18.2751 ev

!    total energy              =    -329.27167036 Ry
     Harris-Foulkes estimate   =    -329.27167036 Ry
     estimated scf accuracy    <          7.0E-11 Ry

     total all-electron energy =     -2545.568206 Ry

     The total energy is the sum of the following terms:

     one-electron contribution =    -109.60111304 Ry
     hartree contribution      =      65.35706336 Ry
     xc contribution           =     -34.82322026 Ry
     ewald contribution        =    -174.05130334 Ry
     one-center paw contrib.   =     -76.15313230 Ry
     smearing contrib. (-TS)   =       0.00003522 Ry

     total magnetization       =     2.15 Bohr mag/cell
     absolute magnetization    =     2.27 Bohr mag/cell

     convergence has been achieved in  14 iterations

     negative rho (up, down):  0.000E+00 3.542E-05

     Forces acting on atoms (Ry/au):

     atom    1 type  1   force =     0.00000000    0.00000000    0.00000000
     The non-local contrib.  to forces
     atom    1 type  1   force =    -0.00000000    0.00000000   -0.00000000
     The ionic contribution  to forces
     atom    1 type  1   force =     0.00000000    0.00000000    0.00000000
     The local contribution  to forces
     atom    1 type  1   force =     0.00000000   -0.00000000   -0.00000000
     The core correction contribution to forces
     atom    1 type  1   force =    -0.00000000    0.00000000   -0.00000000
     The Hubbard contrib.    to forces
     atom    1 type  1   force =     0.00000000    0.00000000    0.00000000
     The SCF correction term to forces
     atom    1 type  1   force =     0.00000000   -0.00000000   -0.00000000

     Total force =     0.000000     Total SCF correction =     0.000000


     entering subroutine stress ...


     negative rho (up, down):  0.000E+00 3.542E-05
          total   stress  (Ry/bohr**3)                   (kbar)     P=   -0.10
  -0.00000067   0.00000000  -0.00000000         -0.10      0.00     -0.00
   0.00000000  -0.00000067   0.00000000          0.00     -0.10      0.00
  -0.00000000   0.00000000  -0.00000067         -0.00      0.00     -0.10

     kinetic stress (kbar)  82175.52     -0.00      0.00
                               -0.00  82175.52     -0.00
                                0.00     -0.00  82175.52

     local   stress (kbar)  70887.09     -0.00     -0.00
                               -0.00  70887.09      0.00
                               -0.00      0.00  70887.09

     nonloc. stress (kbar) -64222.65     -0.00      0.00
                               -0.00 -64222.65     -0.00
                                0.00     -0.00 -64222.65

     hartree stress (kbar)  41793.72      0.00     -0.00
                                0.00  41793.72      0.00
                               -0.00      0.00  41793.72

     exc-cor stress (kbar)  -2602.38      0.00     -0.00
                                0.00  -2602.38     -0.00
                               -0.00     -0.00  -2602.38

     corecor stress (kbar) -16731.24      0.00      0.00
                                0.00 -16731.24      0.00
                                0.00     -0.00 -16731.24

     ewald   stress (kbar)-111300.17      0.00      0.00
                                0.00-111300.17      0.00
                                0.00      0.00-111300.17

     hubbard stress (kbar)      0.00      0.00      0.00
                                0.00      0.00      0.00
                                0.00      0.00      0.00

     london  stress (kbar)      0.00      0.00      0.00
                                0.00      0.00      0.00
                                0.00      0.00      0.00

     XDM     stress (kbar)      0.00      0.00      0.00
                                0.00      0.00      0.00
                                0.00      0.00      0.00

     dft-nl  stress (kbar)      0.00      0.00      0.00
                                0.00      0.00      0.00
                                0.00      0.00      0.00

     TS-vdW  stress (kbar)      0.00      0.00      0.00
                                0.00      0.00      0.00
                                0.00      0.00      0.00



     Writing output data file fe_bcc.save
 
     init_run     :      2.13s CPU      2.22s WALL (       2 calls)
     electrons    :    259.78s CPU    268.06s WALL (       6 calls)
     update_pot   :      0.63s CPU      0.77s WALL (       4 calls)
     forces       :      0.82s CPU      0.84s WALL (       6 calls)
     stress       :      1.60s CPU      1.62s WALL (       6 calls)

     Called by init_run:
     wfcinit      :      1.68s CPU      1.74s WALL (       2 calls)
     potinit      :      0.24s CPU      0.26s WALL (       2 calls)

     Called by electrons:
     c_bands      :    212.50s CPU    219.02s WALL (      96 calls)
     sum_band     :     37.26s CPU     38.66s WALL (      96 calls)
     v_of_rho     :      0.83s CPU      0.84s WALL (     101 calls)
     v_h          :      0.02s CPU      0.03s WALL (     101 calls)
     v_xc         :      0.90s CPU      0.91s WALL (     113 calls)
     newd         :      0.59s CPU      0.63s WALL (     101 calls)
     PAW_pot      :      9.18s CPU      9.50s WALL (     105 calls)
     mix_rho      :      0.12s CPU      0.12s WALL (      96 calls)

     Called by c_bands:
     init_us_2    :      1.56s CPU      1.44s WALL (   81900 calls)
     cegterg      :    206.78s CPU    213.36s WALL (   37440 calls)

     Called by sum_band:
     sum_band:bec :      0.06s CPU      0.23s WALL (   39000 calls)
     addusdens    :      0.89s CPU      0.90s WALL (      96 calls)

     Called by *egterg:
     h_psi        :    152.66s CPU    157.91s WALL (   96359 calls)
     s_psi        :      1.69s CPU      1.24s WALL (   96359 calls)
     g_psi        :      0.37s CPU      0.42s WALL (   58139 calls)
     cdiaghg      :     40.32s CPU     41.08s WALL (   93629 calls)
     cegterg:over :      5.14s CPU      5.10s WALL (   58139 calls)
     cegterg:upda :      1.06s CPU      1.31s WALL (   58139 calls)
     cegterg:last :      0.81s CPU      0.94s WALL (   38100 calls)

     Called by h_psi:
     h_psi:vloc   :    147.48s CPU    152.50s WALL (   96359 calls)
     h_psi:vnl    :      4.89s CPU      5.05s WALL (   96359 calls)
     add_vuspsi   :      0.79s CPU      1.39s WALL (   96359 calls)

     General routines
     calbec       :      5.98s CPU      5.37s WALL (  147059 calls)
     fft          :      0.74s CPU      0.73s WALL (    3343 calls)
     ffts         :      0.03s CPU      0.03s WALL (     394 calls)
     fftw         :    169.14s CPU    172.35s WALL ( 3643270 calls)
     interpolate  :      0.12s CPU      0.12s WALL (     394 calls)
     davcio       :      0.01s CPU      0.04s WALL (     780 calls)
 
     Parallel routines
     fft_scatter  :     55.30s CPU     64.37s WALL ( 3647007 calls)

     PAW routines
     PAW_pot      :      9.18s CPU      9.50s WALL (     105 calls)
     PAW_symme    :      0.19s CPU      0.20s WALL (     201 calls)
 
     PWSCF        :  4m28.38s CPU     4m37.53s WALL

 
   This run was terminated on:   1:21:51  13Sep2017            

=------------------------------------------------------------------------------=
   JOB DONE.
=------------------------------------------------------------------------------=
